 Gaussian 16, Revision A.03,
 Gaussian 16:  ES64L-G16RevA.03 25-Dec-2016

 -----------------------------
 # opt freq b3lyp/6-31g(2df,p)
 -----------------------------

 -------------------
 Title Card Required
 -------------------
 Symbolic Z-matrix:
 Charge =  0 Multiplicity = 1

 SCF Done:  E(RB3LYP) =  -387.108560986     A.U. after   12 cycles
 SCF Done:  E(RB3LYP) =  -387.115525362     A.U. after   11 cycles
 SCF Done:  E(RB3LYP) =  -387.116525127     A.U. after   10 cycles
 SCF Done:  E(RB3LYP) =  -387.116755246     A.U. after   10 cycles
 SCF Done:  E(RB3LYP) =  -387.116849283     A.U. after    9 cycles
 SCF Done:  E(RB3LYP) =  -387.116880495     A.U. after    9 cycles
 SCF Done:  E(RB3LYP) =  -387.116901103     A.U. after    8 cycles
 SCF Done:  E(RB3LYP) =  -387.116903336     A.U. after    8 cycles
 SCF Done:  E(RB3LYP) =  -387.116903936     A.U. after    6 cycles
 SCF Done:  E(RB3LYP) =  -387.116904106     A.U. after    6 cycles
 SCF Done:  E(RB3LYP) =  -387.116904262     A.U. after    7 cycles
 SCF Done:  E(RB3LYP) =  -387.116904331     A.U. after    6 cycles
 Optimization completed.
    -- Stationary point found.
 Normal termination of Gaussian 16 at Tue Jun  1 15:29:26 2021.

 ----------------------------------------------------------------------
 #N Geom=AllCheck Guess=TCheck SCRF=Check GenChk RB3LYP/6-31G(2df,p) Fr
 eq
 ----------------------------------------------------------------------

 Structure from the checkpoint file:  "CCCCCpCpNCN.chk"
 -------------------
 Title Card Required
 -------------------
 Charge =  0 Multiplicity = 1

                         Standard orientation:
 ---------------------------------------------------------------------
 Center     Atomic      Atomic             Coordinates (Angstroms)
 Number     Number       Type             X           Y           Z
 ---------------------------------------------------------------------
      1          6           0        4.491346   -0.174032    0.245148
      2          6           0        3.141462   -0.710200   -0.238617
      3          6           0        1.956597    0.163659    0.190015
      4          6           0        0.609497   -0.373132   -0.304387
      5          6           0       -0.626870    0.387928    0.200918
      6          6           0       -0.648179    1.842461   -0.286712
      7          7           0       -1.822481   -0.321262   -0.265755
      8          6           0       -3.054288   -0.023833    0.444146
      9          7           0       -4.082714   -0.928214   -0.060173
     10          1           0        5.316193   -0.818748   -0.074276
     11          1           0        4.523224   -0.110165    1.338665
     12          1           0        4.682740    0.830554   -0.148528
     13          1           0        2.994502   -1.730289    0.140504
     14          1           0        3.150864   -0.793992   -1.333470
     15          1           0        2.116268    1.183560   -0.181641
     16          1           0        1.941344    0.238364    1.286629
     17          1           0        0.516433   -1.422431    0.011384
     18          1           0        0.588788   -0.381676   -1.402339
     19          1           0       -0.582064    0.401191    1.308783
     20          1           0       -0.645069    1.873186   -1.381295
     21          1           0        0.219344    2.395947    0.083263
     22          1           0       -1.540647    2.369285    0.062156
     23          1           0       -1.677514   -1.324320   -0.194339
     24          1           0       -3.286074    1.044594    0.303314
     25          1           0       -2.977579   -0.188946    1.536663
     26          1           0       -4.274758   -0.702301   -1.032020
     27          1           0       -4.947020   -0.794583    0.454981
 ---------------------------------------------------------------------

 SCF Done:  E(RB3LYP) =  -387.116904331     A.U. after    1 cycles

 The electronic state is 1-A.
 Alpha  occ. eigenvalues --  -14.30443 -14.29964 -10.22141 -10.20368 -10.17607
 Alpha  occ. eigenvalues --  -10.17450 -10.17327 -10.16977 -10.16495  -0.91413
 Alpha  occ. eigenvalues --   -0.84997  -0.79242  -0.74580  -0.70093  -0.65088
 Alpha  occ. eigenvalues --   -0.61230  -0.57607  -0.56169  -0.49344  -0.48466
 Alpha  occ. eigenvalues --   -0.46895  -0.44491  -0.42634  -0.41642  -0.40479
 Alpha  occ. eigenvalues --   -0.39159  -0.38938  -0.37700  -0.36206  -0.35784
 Alpha  occ. eigenvalues --   -0.33852  -0.32969  -0.32417  -0.31659  -0.30622
 Alpha  occ. eigenvalues --   -0.23718  -0.21516
 Alpha virt. eigenvalues --    0.08689   0.09364   0.10123   0.11465   0.12306
 Alpha virt. eigenvalues --    0.13390   0.14096   0.14641   0.16054   0.16510
 Alpha virt. eigenvalues --    0.17164   0.17959   0.18586   0.19159   0.19679

 Mulliken charges:
               1
     1  C   -0.380692
     2  C   -0.162440
     3  C   -0.169317
     4  C   -0.196898
     5  C    0.064995
     6  C   -0.374890
     7  N   -0.291960
     8  C   -0.086652
     9  N   -0.514916
    10  H    0.110389
    11  H    0.112589
    12  H    0.112868
    13  H    0.093557
    14  H    0.095043
    15  H    0.097237
    16  H    0.090885
    17  H    0.084593
    18  H    0.101407
    19  H    0.047760
    20  H    0.116297
    21  H    0.111986
    22  H    0.110741
    23  H    0.213444
    24  H    0.085713
    25  H    0.075507
    26  H    0.228037
    27  H    0.224713
 Sum of Mulliken charges =  -0.00000

 Dipole moment (field-independent basis, Debye):
    X=             -0.3068    Y=              0.6090    Z=              0.4649  Tot=              0.8253
 Quadrupole moment (field-independent basis, Debye-Ang):
   XX=            -53.8693   YY=            -61.2358   ZZ=            -59.2216
   XY=             -3.1894   XZ=             -1.0258   YZ=             -0.2348

  Exact polarizability: 118.843   1.616  85.348  -0.647   0.847  80.696
 Approx polarizability: 131.514   2.419 124.353  -0.976   1.443 125.145

                      1                      2                      3
                      A                      A                      A
 Frequencies --     45.1997                60.4424                73.9446
 Red. masses --      2.1562                 1.9497                 2.1194
 Frc consts  --      0.0026                 0.0042                 0.0068
 IR Inten    --      0.2213                 2.5042                 1.1409

                      4                      5                      6
                      A                      A                      A
 Frequencies --     96.8602               109.1650               138.1567
 Red. masses --      2.9493                 2.5525                 1.8573
 Frc consts  --      0.0163                 0.0179                 0.0209
 IR Inten    --      0.1031                 2.5281                 0.6284

                      7                      8                      9
                      A                      A                      A
 Frequencies --    200.0868               231.9850               247.2784
 Red. masses --      2.7274                 1.1196                 1.1357
 Frc consts  --      0.0643                 0.0355                 0.0409
 IR Inten    --      2.0489                 4.4364                 1.9494

                     10                     11                     12
                      A                      A                      A
 Frequencies --    278.0353               295.3944               313.1806
 Red. masses --      1.6303                 2.2885                 2.5761
 Frc consts  --      0.0743                 0.1177                 0.1489
 IR Inten    --     17.5265                12.6447                 0.1753

                     13                     14                     15
                      A                      A                      A
 Frequencies --    374.8130               440.5147               508.2192
 Red. masses --      2.9374                 2.3627                 2.5565
 Frc consts  --      0.2431                 0.2701                 0.3890
 IR Inten    --     12.2742                 2.6263                 0.1662

                     16                     17                     18
                      A                      A                      A
 Frequencies --    555.7542               736.8242               787.8953
 Red. masses --      2.7995                 1.0821                 1.2661
 Frc consts  --      0.5094                 0.3461                 0.4631
 IR Inten    --      4.5442                 2.8286                 6.9398

                     19                     20                     21
                      A                      A                      A
 Frequencies --    800.5323               855.0013               875.2278
 Red. masses --      1.3289                 1.9015                 1.3520
 Frc consts  --      0.5018                 0.8190                 0.6102
 IR Inten    --     46.5509                41.0594               111.1167

                     22                     23                     24
                      A                      A                      A
 Frequencies --    904.4720               916.3999               943.0795
 Red. masses --      1.8069                 1.2407                 1.7881
 Frc consts  --      0.8709                 0.6139                 0.9370
 IR Inten    --      2.5594                 1.1462                 1.6220

                     25                     26                     27
                      A                      A                      A
 Frequencies --   1008.9956              1025.1775              1031.8011
 Red. masses --      1.4640                 1.6518                 1.9816
 Frc consts  --      0.8782                 1.0228                 1.2430
 IR Inten    --      0.6899                 6.4520                 0.9629

                     28                     29                     30
                      A                      A                      A
 Frequencies --   1057.9582              1071.8934              1104.0937
 Red. masses --      2.8001                 2.3784                 1.8701
 Frc consts  --      1.8466                 1.6100                 1.3431
 IR Inten    --      1.5050                 0.5407                 6.5259

                     31                     32                     33
                      A                      A                      A
 Frequencies --   1121.8815              1167.7622              1188.5607
 Red. masses --      2.2719                 2.8993                 1.8799
 Frc consts  --      1.6847                 2.3294                 1.5647
 IR Inten    --     15.6845                36.0847                 3.5857

                     34                     35                     36
                      A                      A                      A
 Frequencies --   1199.7794              1219.7171              1248.9697
 Red. masses --      2.2014                 1.3140                 1.4425
 Frc consts  --      1.8670                 1.1517                 1.3258
 IR Inten    --     48.4135                 9.3015                 4.5651

                     37                     38                     39
                      A                      A                      A
 Frequencies --   1277.0838              1313.5096              1319.2577
 Red. masses --      1.2670                 1.2324                 1.2207
 Frc consts  --      1.2175                 1.2527                 1.2518
 IR Inten    --      3.6052                 0.6870                 2.4188

                     40                     41                     42
                      A                      A                      A
 Frequencies --   1332.2780              1346.4737              1378.7684
 Red. masses --      1.0655                 1.2866                 1.4049
 Frc consts  --      1.1143                 1.3743                 1.5736
 IR Inten    --      0.9399                 7.7236                14.7795

                     43                     44                     45
                      A                      A                      A
 Frequencies --   1382.8880              1399.6760              1407.7229
 Red. masses --      1.3376                 1.5315                 1.3023
 Frc consts  --      1.5071                 1.7677                 1.5205
 IR Inten    --     17.2104                 0.4195                17.1499

                     46                     47                     48
                      A                      A                      A
 Frequencies --   1413.8394              1434.3228              1480.1590
 Red. masses --      1.2662                 1.3284                 1.0798
 Frc consts  --      1.4912                 1.6102                 1.3939
 IR Inten    --      5.0116                 7.2602                 2.0328

                     49                     50                     51
                      A                      A                      A
 Frequencies --   1486.0725              1490.0776              1499.0629
 Red. masses --      1.0692                 1.0931                 1.0665
 Frc consts  --      1.3912                 1.4299                 1.4121
 IR Inten    --      4.6027                 9.4601                 2.7315

                     52                     53                     54
                      A                      A                      A
 Frequencies --   1499.8353              1503.5565              1504.9979
 Red. masses --      1.0432                 1.1903                 1.0915
 Frc consts  --      1.3826                 1.5854                 1.4566
 IR Inten    --      4.5232                37.1387                15.2953

                     55                     56                     57
                      A                      A                      A
 Frequencies --   1513.4188              1541.0220              1641.2888
 Red. masses --      1.0910                 1.0876                 1.0994
 Frc consts  --      1.4722                 1.5217                 1.7450
 IR Inten    --      3.5560                 1.4434                29.9940

                     58                     59                     60
                      A                      A                      A
 Frequencies --   2886.5668              2908.8316              2962.8331
 Red. masses --      1.0801                 1.0715                 1.0865
 Frc consts  --      5.3024                 5.3415                 5.6192
 IR Inten    --     46.4590               110.1442                68.0704

                     61                     62                     63
                      A                      A                      A
 Frequencies --   2998.0226              3005.9313              3015.6365
 Red. masses --      1.0615                 1.0613                 1.0632
 Frc consts  --      5.6216                 5.6501                 5.6969
 IR Inten    --     17.4483                 4.6714                51.1699

                     64                     65                     66
                      A                      A                      A
 Frequencies --   3027.7580              3033.0752              3040.2120
 Red. masses --      1.0375                 1.0877                 1.0442
 Frc consts  --      5.6036                 5.8955                 5.6865
 IR Inten    --     32.3599                15.3640                15.5394

                     67                     68                     69
                      A                      A                      A
 Frequencies --   3041.7133              3064.1482              3094.1316
 Red. masses --      1.0932                 1.1028                 1.1021
 Frc consts  --      5.9594                 6.1006                 6.2164
 IR Inten    --      3.3374                62.9121                60.8661

                     70                     71                     72
                      A                      A                      A
 Frequencies --   3099.8231              3110.4051              3115.1545
 Red. masses --      1.1009                 1.1006                 1.1007
 Frc consts  --      6.2326                 6.2736                 6.2932
 IR Inten    --     39.4206                33.7480                32.3060

                     73                     74                     75
                      A                      A                      A
 Frequencies --   3492.5478              3506.3559              3578.2688
 Red. masses --      1.0493                 1.0731                 1.0922
 Frc consts  --      7.5413                 7.7733                 8.2396
 IR Inten    --      0.3279                 0.1563                 0.2948

 - Thermochemistry -
 -------------------
 Temperature   298.150 Kelvin.  Pressure   1.00000 Atm.
 Atom     1 has atomic number  6 and mass  12.00000

 Molecular mass:   130.14700 amu.
 Principal axes and moments of inertia in atomic units:
                           1         2         3
     Eigenvalues --   410.250413581.667283830.47553
           X            0.99999  -0.00540  -0.00055
           Y            0.00540   0.99998   0.00231
           Z            0.00054  -0.00232   1.00000
 This molecule is an asymmetric top.
 Rotational symmetry number  1.
 Rotational temperatures (Kelvin)      0.21112     0.02418     0.02261
 Rotational constants (GHZ):           4.39912     0.50388     0.47115
 Zero-point vibrational energy     660229.7 (Joules/Mol)
                                  157.79868 (Kcal/Mol)
 Warning -- explicit consideration of  16 degrees of freedom as
           vibrations may cause significant error
 Vibrational temperatures:     65.03    86.96   106.39   139.36   157.06
          (Kelvin)            198.78   287.88   333.77   355.78   400.03
                              425.01   450.60   539.27   633.80   731.21
                              799.61  1060.13  1133.61  1151.79  1230.16
                             1259.26  1301.33  1318.50  1356.88  1451.72
                             1475.00  1484.53  1522.17  1542.22  1588.54
                             1614.14  1680.15  1710.07  1726.21  1754.90
                             1796.99  1837.44  1889.85  1898.12  1916.85
                             1937.28  1983.74  1989.67  2013.82  2025.40
                             2034.20  2063.67  2129.62  2138.13  2143.89
                             2156.82  2157.93  2163.28  2165.36  2177.47
                             2217.19  2361.45  4153.13  4185.16  4262.86
                             4313.49  4324.86  4338.83  4356.27  4363.92
                             4374.19  4376.35  4408.63  4451.77  4459.95
                             4475.18  4482.01  5025.00  5044.86  5148.33

 Zero-point correction=                           0.251468 (Hartree/Particle)
 Thermal correction to Energy=                    0.263683
 Thermal correction to Enthalpy=                  0.264627
 Thermal correction to Gibbs Free Energy=         0.212672
 Sum of electronic and zero-point Energies=           -386.865436
 Sum of electronic and thermal Energies=              -386.853222
 Sum of electronic and thermal Enthalpies=            -386.852277
 Sum of electronic and thermal Free Energies=         -386.904233

                     E (Thermal)             CV                S
                      KCal/Mol        Cal/Mol-Kelvin    Cal/Mol-Kelvin
 Total                  165.463             43.277            109.349
 Electronic               0.000              0.000              0.000
 Translational            0.889              2.981             40.503
 Rotational               0.889              2.981             30.110
 Vibrational            163.686             37.315             38.735
 Vibration     1          0.595              1.979              5.017
 Vibration     2          0.597              1.973              4.443
 Vibration     3          0.599              1.966              4.046
 Vibration     4          0.603              1.951              3.517
 Vibration     5          0.606              1.942              3.284
 Vibration     6          0.614              1.915              2.829
 Vibration     7          0.638              1.840              2.132
 Vibration     8          0.653              1.792              1.864
 Vibration     9          0.661              1.767              1.750
 Vibration    10          0.679              1.714              1.546
 Vibration    11          0.690              1.682              1.443
 Vibration    12          0.701              1.649              1.345
 Vibration    13          0.746              1.524              1.060
 Vibration    14          0.800              1.382              0.825
 Vibration    15          0.863              1.232              0.638
 Vibration    16          0.911              1.127              0.532

                           ! Non-Optimized Parameters !
 Normal termination of Gaussian 16 at Tue Jun  1 16:05:19 2021.
