 Gaussian 16, Revision A.03,
 Gaussian 16:  ES64L-G16RevA.03 25-Dec-2016

 -----------------------------
 # opt freq b3lyp/6-31g(2df,p)
 -----------------------------

 -------------------
 Title Card Required
 -------------------
 Symbolic Z-matrix:
 Charge =  0 Multiplicity = 1

 SCF Done:  E(RB3LYP) =  -483.139066798     A.U. after   13 cycles
 SCF Done:  E(RB3LYP) =  -483.141716831     A.U. after   12 cycles
 SCF Done:  E(RB3LYP) =  -483.141727770     A.U. after   12 cycles
 SCF Done:  E(RB3LYP) =  -483.142931478     A.U. after   10 cycles
 SCF Done:  E(RB3LYP) =  -483.143582596     A.U. after   11 cycles
 SCF Done:  E(RB3LYP) =  -483.143605305     A.U. after   12 cycles
 SCF Done:  E(RB3LYP) =  -483.144082747     A.U. after   11 cycles
 SCF Done:  E(RB3LYP) =  -483.144218066     A.U. after   10 cycles
 SCF Done:  E(RB3LYP) =  -483.144266521     A.U. after   10 cycles
 SCF Done:  E(RB3LYP) =  -483.144272291     A.U. after    8 cycles
 SCF Done:  E(RB3LYP) =  -483.144283878     A.U. after    9 cycles
 SCF Done:  E(RB3LYP) =  -483.144287423     A.U. after   10 cycles
 SCF Done:  E(RB3LYP) =  -483.144290090     A.U. after   12 cycles
 SCF Done:  E(RB3LYP) =  -483.144299712     A.U. after   12 cycles
 SCF Done:  E(RB3LYP) =  -483.144300976     A.U. after    9 cycles
 SCF Done:  E(RB3LYP) =  -483.144301110     A.U. after    7 cycles
 SCF Done:  E(RB3LYP) =  -483.144301266     A.U. after    9 cycles
 SCF Done:  E(RB3LYP) =  -483.144301411     A.U. after    9 cycles
 SCF Done:  E(RB3LYP) =  -483.144301456     A.U. after    7 cycles
 Optimization completed on the basis of negligible forces.
    -- Stationary point found.
 Normal termination of Gaussian 16 at Tue Jun  1 03:58:30 2021.

 ----------------------------------------------------------------------
 #N Geom=AllCheck Guess=TCheck SCRF=Check GenChk RB3LYP/6-31G(2df,p) Fr
 eq
 ----------------------------------------------------------------------

 Structure from the checkpoint file:  "CCCCCCCtCCpNpO.chk"
 -------------------
 Title Card Required
 -------------------
 Charge =  0 Multiplicity = 1

                         Standard orientation:
 ---------------------------------------------------------------------
 Center     Atomic      Atomic             Coordinates (Angstroms)
 Number     Number       Type             X           Y           Z
 ---------------------------------------------------------------------
      1          6           0        5.837977    0.808921   -0.134045
      2          6           0        4.728037   -0.215625    0.115709
      3          6           0        3.321712    0.354267   -0.099356
      4          6           0        2.204869   -0.664946    0.148971
      5          6           0        0.802216   -0.089945   -0.067702
      6          6           0       -0.310424   -1.127586    0.186804
      7          6           0       -1.653990   -0.596700   -0.016701
      8          6           0       -2.748656   -0.127874   -0.209629
      9          6           0       -4.108991    0.411920   -0.375596
     10          7           0       -5.158660   -0.547660   -0.023967
     11          8           0       -4.259514    1.622061    0.341841
     12          1           0        6.828913    0.373069    0.027204
     13          1           0        5.740013    1.670082    0.536378
     14          1           0        5.803862    1.186899   -1.161969
     15          1           0        4.808826   -0.601497    1.140689
     16          1           0        4.872217   -1.081054   -0.544771
     17          1           0        3.239610    0.740558   -1.124899
     18          1           0        3.176366    1.220655    0.560941
     19          1           0        2.286352   -1.050888    1.174982
     20          1           0        2.349735   -1.531374   -0.511734
     21          1           0        0.706217    0.288731   -1.092157
     22          1           0        0.643527    0.770318    0.593424
     23          1           0       -0.220361   -1.513302    1.211436
     24          1           0       -0.157833   -1.993383   -0.471904
     25          1           0       -4.274520    0.687399   -1.423226
     26          1           0       -4.867470   -1.092833    0.783711
     27          1           0       -5.276685   -1.211937   -0.783699
     28          1           0       -3.908534    1.481100    1.227901
 ---------------------------------------------------------------------

 SCF Done:  E(RB3LYP) =  -483.144301456     A.U. after    1 cycles

 The electronic state is 1-A.
 Alpha  occ. eigenvalues --  -19.13308 -14.31281 -10.27438 -10.20785 -10.18694
 Alpha  occ. eigenvalues --  -10.18236 -10.17981 -10.17905 -10.17818 -10.17274
 Alpha  occ. eigenvalues --  -10.16850  -1.02446  -0.87551  -0.81634  -0.78710
 Alpha  occ. eigenvalues --   -0.74748  -0.71361  -0.66536  -0.64056  -0.59200
 Alpha  occ. eigenvalues --   -0.57800  -0.53525  -0.49851  -0.48453  -0.47678
 Alpha  occ. eigenvalues --   -0.46392  -0.45484  -0.43021  -0.41236  -0.40569
 Alpha  occ. eigenvalues --   -0.39930  -0.39094  -0.36504  -0.35357  -0.34918
 Alpha  occ. eigenvalues --   -0.33403  -0.32933  -0.32314  -0.32159  -0.28876
 Alpha  occ. eigenvalues --   -0.27343  -0.25534  -0.23638
 Alpha virt. eigenvalues --    0.03971   0.04879   0.08620   0.09570   0.10054
 Alpha virt. eigenvalues --    0.11451   0.11758   0.12355   0.12962   0.13987
 Alpha virt. eigenvalues --    0.15492   0.16495   0.17483   0.17740   0.17904

 Mulliken charges:
               1
     1  C   -0.379975
     2  C   -0.163404
     3  C   -0.166310
     4  C   -0.175927
     5  C   -0.170071
     6  C   -0.364297
     7  C   -0.024420
     8  C    0.130124
     9  C   -0.038672
    10  N   -0.481759
    11  O   -0.384737
    12  H    0.111124
    13  H    0.113796
    14  H    0.113882
    15  H    0.093702
    16  H    0.093862
    17  H    0.093684
    18  H    0.093383
    19  H    0.092512
    20  H    0.093037
    21  H    0.108676
    22  H    0.107011
    23  H    0.125302
    24  H    0.127765
    25  H    0.114309
    26  H    0.224284
    27  H    0.233035
    28  H    0.280084
 Sum of Mulliken charges =  -0.00000

 Dipole moment (field-independent basis, Debye):
    X=              2.2979    Y=             -2.1075    Z=              0.4537  Tot=              3.1508
 Quadrupole moment (field-independent basis, Debye-Ang):
   XX=            -81.8176   YY=            -69.8531   ZZ=            -64.0581
   XY=              8.4613   XZ=              0.1822   YZ=              1.1847

  Exact polarizability: 156.166  -4.363  94.665   3.683  -0.533  87.528
 Approx polarizability: 181.909 -16.938 142.038   8.070  -1.233 136.054

 ******    1 imaginary frequencies (negative Signs) ******

                      1                      2                      3
                      A                      A                      A
 Frequencies --     -4.0560                40.1626                41.3998
 Red. masses --      3.1413                 2.9676                 2.6801
 Frc consts  --      0.0000                 0.0028                 0.0027
 IR Inten    --      0.2278                 0.6954                 0.3044

                      4                      5                      6
                      A                      A                      A
 Frequencies --     68.7367                97.2387               107.7167
 Red. masses --      2.5767                 1.1127                 3.3045
 Frc consts  --      0.0072                 0.0062                 0.0226
 IR Inten    --      0.1081                70.1608                 0.0535

                      7                      8                      9
                      A                      A                      A
 Frequencies --    118.0182               143.8433               157.8356
 Red. masses --      2.1177                 2.4015                 2.4150
 Frc consts  --      0.0174                 0.0293                 0.0354
 IR Inten    --      0.6549                 0.4941                 2.5146

                     10                     11                     12
                      A                      A                      A
 Frequencies --    169.3129               246.7873               249.5012
 Red. masses --      3.8930                 1.2439                 2.4554
 Frc consts  --      0.0658                 0.0446                 0.0901
 IR Inten    --      0.9279                 1.7085                 2.9536

                     13                     14                     15
                      A                      A                      A
 Frequencies --    263.9749               337.3758               357.9917
 Red. masses --      1.2087                 3.8286                 3.4530
 Frc consts  --      0.0496                 0.2568                 0.2607
 IR Inten    --     63.8369                 9.3342                 4.4698

                     16                     17                     18
                      A                      A                      A
 Frequencies --    427.8898               469.2019               500.4634
 Red. masses --      3.4472                 3.9800                 4.0064
 Frc consts  --      0.3719                 0.5162                 0.5912
 IR Inten    --      0.8623                 3.6197                14.2272

                     19                     20                     21
                      A                      A                      A
 Frequencies --    581.8964               600.5894               731.2139
 Red. masses --      6.2819                 4.2261                 1.0636
 Frc consts  --      1.2532                 0.8981                 0.3351
 IR Inten    --     11.2909                 9.5387                 4.3263

                     22                     23                     24
                      A                      A                      A
 Frequencies --    741.2398               769.5855               792.3663
 Red. masses --      1.1056                 3.1131                 1.1928
 Frc consts  --      0.3579                 1.0863                 0.4412
 IR Inten    --      0.0892                25.1745                 0.8132

                     25                     26                     27
                      A                      A                      A
 Frequencies --    873.7445               885.9853               897.4335
 Red. masses --      1.7965                 1.2442                 1.9754
 Frc consts  --      0.8081                 0.5754                 0.9374
 IR Inten    --    241.5359                 0.2230                 3.3732

                     28                     29                     30
                      A                      A                      A
 Frequencies --    967.2793               995.9423              1007.8561
 Red. masses --      3.9578                 1.1946                 3.8215
 Frc consts  --      2.1818                 0.6981                 2.2871
 IR Inten    --     52.1195                 0.1366                13.0886

                     31                     32                     33
                      A                      A                      A
 Frequencies --   1022.6430              1054.6171              1070.4099
 Red. masses --      3.2501                 2.7420                 2.2586
 Frc consts  --      2.0026                 1.7968                 1.5248
 IR Inten    --      0.1274                 3.2449                 0.0521

                     34                     35                     36
                      A                      A                      A
 Frequencies --   1111.9770              1131.7652              1134.2501
 Red. masses --      3.1414                 2.4752                 1.3628
 Frc consts  --      2.2886                 1.8680                 1.0330
 IR Inten    --    126.2719                 0.6733                 0.0063

                     37                     38                     39
                      A                      A                      A
 Frequencies --   1144.4410              1181.0417              1224.2736
 Red. masses --      2.9299                 1.2662                 1.6117
 Frc consts  --      2.2610                 1.0406                 1.4232
 IR Inten    --     33.5586                36.6132                 0.0299

                     40                     41                     42
                      A                      A                      A
 Frequencies --   1248.4519              1278.0639              1283.6849
 Red. masses --      1.2922                 1.2995                 1.3381
 Frc consts  --      1.1867                 1.2506                 1.2992
 IR Inten    --     13.7368                 0.2520                17.0270

                     43                     44                     45
                      A                      A                      A
 Frequencies --   1311.2990              1316.5576              1329.7324
 Red. masses --      1.3538                 1.1180                 1.0855
 Frc consts  --      1.3716                 1.1418                 1.1308
 IR Inten    --      2.6714                 0.0105                 0.0016

                     46                     47                     48
                      A                      A                      A
 Frequencies --   1335.1129              1362.1353              1391.7188
 Red. masses --      1.0863                 1.4298                 1.5085
 Frc consts  --      1.1408                 1.5630                 1.7215
 IR Inten    --      0.5694                 9.9890                 1.7009

                     49                     50                     51
                      A                      A                      A
 Frequencies --   1401.5498              1411.1636              1414.0146
 Red. masses --      1.6082                 1.2555                 1.2550
 Frc consts  --      1.8613                 1.4731                 1.4785
 IR Inten    --      0.5132                26.4920                 0.7235

                     52                     53                     54
                      A                      A                      A
 Frequencies --   1424.0370              1470.7649              1483.4413
 Red. masses --      1.2160                 1.0822                 1.0708
 Frc consts  --      1.4528                 1.3793                 1.3884
 IR Inten    --     93.2401                 1.4540                 0.2621

                     55                     56                     57
                      A                      A                      A
 Frequencies --   1484.6327              1494.2946              1499.9084
 Red. masses --      1.0713                 1.0735                 1.0402
 Frc consts  --      1.3913                 1.4123                 1.3787
 IR Inten    --      0.4544                 0.6094                 5.0494

                     58                     59                     60
                      A                      A                      A
 Frequencies --   1505.5839              1514.5046              1660.2746
 Red. masses --      1.0832                 1.0934                 1.0951
 Frc consts  --      1.4466                 1.4777                 1.7786
 IR Inten    --      0.3420                 3.6622                21.2944

                     61                     62                     63
                      A                      A                      A
 Frequencies --   2349.8131              2999.3106              3004.3631
 Red. masses --     11.9010                 1.0577                 1.0583
 Frc consts  --     38.7168                 5.6058                 5.6279
 IR Inten    --     15.6810                 1.1850                 5.6691

                     64                     65                     66
                      A                      A                      A
 Frequencies --   3008.8705              3015.6412              3022.0068
 Red. masses --      1.0579                 1.0596                 1.0987
 Frc consts  --      5.6432                 5.6776                 5.9117
 IR Inten    --     17.2725                56.1962                 0.8180

                     67                     68                     69
                      A                      A                      A
 Frequencies --   3028.7580              3033.4124              3034.7845
 Red. masses --      1.0358                 1.0984                 1.0608
 Frc consts  --      5.5981                 5.9547                 5.7565
 IR Inten    --     32.6847                 7.3028                47.9482

                     70                     71                     72
                      A                      A                      A
 Frequencies --   3036.4316              3050.5754              3055.9626
 Red. masses --      1.1021                 1.0845                 1.1049
 Frc consts  --      5.9866                 5.9462                 6.0794
 IR Inten    --      1.5401                24.3186                31.4094

                     73                     74                     75
                      A                      A                      A
 Frequencies --   3079.3879              3095.1125              3100.7657
 Red. masses --      1.1052                 1.1021                 1.1010
 Frc consts  --      6.1749                 6.2202                 6.2369
 IR Inten    --     59.6544                60.5486                38.7677

                     76                     77                     78
                      A                      A                      A
 Frequencies --   3484.5477              3567.2010              3808.6471
 Red. masses --      1.0499                 1.0916                 1.0661
 Frc consts  --      7.5109                 8.1841                 9.1116
 IR Inten    --      0.9372                 1.6841                17.7464

 - Thermochemistry -
 -------------------
 Temperature   298.150 Kelvin.  Pressure   1.00000 Atm.
 Atom     1 has atomic number  6 and mass  12.00000

 Molecular mass:   155.13101 amu.
 Principal axes and moments of inertia in atomic units:
                           1         2         3
     Eigenvalues --   453.349807722.469948033.73787
           X            0.99997   0.00741  -0.00008
           Y           -0.00741   0.99991  -0.01122
           Z           -0.00001   0.01122   0.99994
 This molecule is an asymmetric top.
 Rotational symmetry number  1.
 Warning -- assumption of classical behavior for rotation
           may cause significant error
 Rotational temperatures (Kelvin)      0.19105     0.01122     0.01078
 Rotational constants (GHZ):           3.98090     0.23370     0.22465
    1 imaginary frequencies ignored.
 Zero-point vibrational energy     652649.8 (Joules/Mol)
                                  155.98704 (Kcal/Mol)
 Warning -- explicit consideration of  19 degrees of freedom as
           vibrations may cause significant error
 Vibrational temperatures:     57.79    59.57    98.90   139.90   154.98
          (Kelvin)            169.80   206.96   227.09   243.60   355.07
                              358.98   379.80   485.41   515.07   615.64
                              675.08   720.06   837.22   864.11  1052.05
                             1066.48  1107.26  1140.04  1257.12  1274.74
                             1291.21  1391.70  1432.94  1450.08  1471.36
                             1517.36  1540.08  1599.89  1628.36  1631.93
                             1646.60  1699.26  1761.46  1796.24  1838.85
                             1846.94  1886.67  1894.23  1913.19  1920.93
                             1959.81  2002.37  2016.52  2030.35  2034.45
                             2048.87  2116.10  2134.34  2136.06  2149.96
                             2158.03  2166.20  2179.03  2388.76  3380.86
                             4315.34  4322.61  4329.09  4338.84  4347.99
                             4357.71  4364.40  4366.38  4368.75  4389.10
                             4396.85  4430.55  4453.18  4461.31  5013.49
                             5132.41  5479.79

 Zero-point correction=                           0.248581 (Hartree/Particle)
 Thermal correction to Energy=                    0.262259
 Thermal correction to Enthalpy=                  0.263203
 Thermal correction to Gibbs Free Energy=         0.206947
 Sum of electronic and zero-point Energies=           -482.895720
 Sum of electronic and thermal Energies=              -482.882043
 Sum of electronic and thermal Enthalpies=            -482.881099
 Sum of electronic and thermal Free Energies=         -482.937354

                     E (Thermal)             CV                S
                      KCal/Mol        Cal/Mol-Kelvin    Cal/Mol-Kelvin
 Total                  164.570             48.192            118.400
 Electronic               0.000              0.000              0.000
 Translational            0.889              2.981             41.027
 Rotational               0.889              2.981             31.709
 Vibrational            162.792             42.231             45.664
 Vibration     1          0.594              1.981              5.251
 Vibration     2          0.594              1.981              5.191
 Vibration     3          0.598              1.969              4.189
 Vibration     4          0.603              1.951              3.509
 Vibration     5          0.606              1.943              3.310
 Vibration     6          0.608              1.934              3.133
 Vibration     7          0.616              1.909              2.752
 Vibration     8          0.621              1.894              2.576
 Vibration     9          0.625              1.880              2.443
 Vibration    10          0.661              1.768              1.753
 Vibration    11          0.662              1.764              1.734
 Vibration    12          0.671              1.739              1.635
 Vibration    13          0.718              1.601              1.225
 Vibration    14          0.733              1.559              1.131
 Vibration    15          0.789              1.410              0.866
 Vibration    16          0.826              1.318              0.740
 Vibration    17          0.856              1.249              0.657
 Vibration    18          0.939              1.070              0.482
 Vibration    19          0.959              1.031              0.449

 Optimization completed on the basis of negligible forces.
    -- Stationary point found.
 Normal termination of Gaussian 16 at Tue Jun  1 04:46:02 2021.
