 Gaussian 16, Revision A.03,
 Gaussian 16:  ES64L-G16RevA.03 25-Dec-2016

 -----------------------------
 # opt freq b3lyp/6-31g(2df,p)
 -----------------------------

 -------------------
 Title Card Required
 -------------------
 Symbolic Z-matrix:
 Charge =  0 Multiplicity = 1

 SCF Done:  E(RB3LYP) =  -371.076283652     A.U. after   11 cycles
 SCF Done:  E(RB3LYP) =  -371.080194087     A.U. after   10 cycles
 SCF Done:  E(RB3LYP) =  -371.080633330     A.U. after    8 cycles
 SCF Done:  E(RB3LYP) =  -371.080681682     A.U. after    8 cycles
 SCF Done:  E(RB3LYP) =  -371.080694626     A.U. after    8 cycles
 SCF Done:  E(RB3LYP) =  -371.080696493     A.U. after    7 cycles
 SCF Done:  E(RB3LYP) =  -371.080696751     A.U. after    6 cycles
 Optimization completed.
    -- Stationary point found.
 Normal termination of Gaussian 16 at Tue Jun  1 20:47:03 2021.

 ----------------------------------------------------------------------
 #N Geom=AllCheck Guess=TCheck SCRF=Check GenChk RB3LYP/6-31G(2df,p) Fr
 eq
 ----------------------------------------------------------------------

 Structure from the checkpoint file:  "CCCCCCCNC.chk"
 -------------------
 Title Card Required
 -------------------
 Charge =  0 Multiplicity = 1

                         Standard orientation:
 ---------------------------------------------------------------------
 Center     Atomic      Atomic             Coordinates (Angstroms)
 Number     Number       Type             X           Y           Z
 ---------------------------------------------------------------------
      1          6           0       -5.094756   -0.358544    0.019731
      2          6           0       -3.816979    0.484228   -0.015001
      3          6           0       -2.536652   -0.357557    0.012491
      4          6           0       -1.252961    0.478180   -0.022237
      5          6           0        0.026676   -0.364698    0.005856
      6          6           0        1.308112    0.473724   -0.033577
      7          6           0        2.582317   -0.369321    0.004259
      8          7           0        3.775179    0.465177   -0.073387
      9          6           0        5.014857   -0.293824    0.002244
     10          1           0       -5.990685    0.269996   -0.000986
     11          1           0       -5.139775   -0.972192    0.926530
     12          1           0       -5.144706   -1.037368   -0.839074
     13          1           0       -3.811925    1.177667    0.836590
     14          1           0       -3.816770    1.112883   -0.915448
     15          1           0       -2.541618   -1.052148   -0.839449
     16          1           0       -2.536634   -0.987485    0.913363
     17          1           0       -1.248685    1.172765    0.829593
     18          1           0       -1.253021    1.107268   -0.923301
     19          1           0        0.021194   -1.059706   -0.845410
     20          1           0        0.027310   -0.992633    0.907739
     21          1           0        1.311705    1.169904    0.818114
     22          1           0        1.325451    1.095209   -0.937156
     23          1           0        2.595690   -1.051958   -0.857004
     24          1           0        2.571129   -1.015815    0.904955
     25          1           0        3.751973    1.145575    0.679986
     26          1           0        5.104031   -0.936578   -0.881428
     27          1           0        5.096840   -0.945386    0.892076
     28          1           0        5.868568    0.390639    0.001423
 ---------------------------------------------------------------------

 SCF Done:  E(RB3LYP) =  -371.080696751     A.U. after    1 cycles

 The electronic state is 1-A.
 Alpha  occ. eigenvalues --  -14.30540 -10.19612 -10.19386 -10.17480 -10.17441
 Alpha  occ. eigenvalues --  -10.17316 -10.17308 -10.17260 -10.16902  -0.89287
 Alpha  occ. eigenvalues --   -0.80232  -0.77052  -0.72427  -0.67497  -0.63420
 Alpha  occ. eigenvalues --   -0.59836  -0.57433  -0.57055  -0.48365  -0.47004
 Alpha  occ. eigenvalues --   -0.44896  -0.43857  -0.42838  -0.41559  -0.40291
 Alpha  occ. eigenvalues --   -0.39918  -0.37220  -0.36909  -0.35523  -0.35325
 Alpha  occ. eigenvalues --   -0.33653  -0.33234  -0.32025  -0.31985  -0.31632
 Alpha  occ. eigenvalues --   -0.30051  -0.21463
 Alpha virt. eigenvalues --    0.08813   0.09291   0.10426   0.11418   0.12254
 Alpha virt. eigenvalues --    0.13096   0.13783   0.15179   0.15544   0.16701
 Alpha virt. eigenvalues --    0.17633   0.17750   0.19145   0.19326   0.19679

 Mulliken charges:
               1
     1  C   -0.379057
     2  C   -0.162796
     3  C   -0.158641
     4  C   -0.177549
     5  C   -0.178852
     6  C   -0.194519
     7  C   -0.119038
     8  N   -0.278803
     9  C   -0.307493
    10  H    0.109600
    11  H    0.112201
    12  H    0.112502
    13  H    0.092628
    14  H    0.093275
    15  H    0.090046
    16  H    0.089376
    17  H    0.089913
    18  H    0.092145
    19  H    0.092846
    20  H    0.091424
    21  H    0.085153
    22  H    0.105082
    23  H    0.098001
    24  H    0.068928
    25  H    0.210946
    26  H    0.119503
    27  H    0.089028
    28  H    0.114151
 Sum of Mulliken charges =  -0.00000

 Dipole moment (field-independent basis, Debye):
    X=             -0.0767    Y=             -0.1479    Z=              0.7837  Tot=              0.8012
 Quadrupole moment (field-independent basis, Debye-Ang):
   XX=            -60.7177   YY=            -60.7266   ZZ=            -59.6609
   XY=             -0.8685   XZ=              3.1670   YZ=              1.8032

  Exact polarizability: 127.476  -0.239  86.772   0.376   0.572  82.692
 Approx polarizability: 132.742   0.104 129.674   0.156   1.056 128.507

                      1                      2                      3
                      A                      A                      A
 Frequencies --     39.7456                60.5761                62.8801
 Red. masses --      3.2307                 1.6187                 3.2972
 Frc consts  --      0.0030                 0.0035                 0.0077
 IR Inten    --      0.1655                 0.9217                 0.0221

                      4                      5                      6
                      A                      A                      A
 Frequencies --     97.4374               118.5979               150.4481
 Red. masses --      2.5625                 1.7053                 2.1728
 Frc consts  --      0.0143                 0.0141                 0.0290
 IR Inten    --      0.5263                 0.6477                 0.4964

                      7                      8                      9
                      A                      A                      A
 Frequencies --    161.5144               162.9850               242.3130
 Red. masses --      1.9899                 2.8091                 3.8725
 Frc consts  --      0.0306                 0.0440                 0.1340
 IR Inten    --      0.1925                 0.1853                 0.0455

                     10                     11                     12
                      A                      A                      A
 Frequencies --    247.3439               251.9726               294.8914
 Red. masses --      1.1203                 1.1797                 3.0108
 Frc consts  --      0.0404                 0.0441                 0.1543
 IR Inten    --      0.0026                 1.1817                 1.3011

                     13                     14                     15
                      A                      A                      A
 Frequencies --    402.1815               460.0499               504.5053
 Red. masses --      2.8020                 3.3847                 2.7898
 Frc consts  --      0.2670                 0.4221                 0.4184
 IR Inten    --      1.0933                 1.5856                 1.0088

                     16                     17                     18
                      A                      A                      A
 Frequencies --    732.0239               741.4054               774.9566
 Red. masses --      1.0618                 1.0865                 1.1246
 Frc consts  --      0.3352                 0.3519                 0.3979
 IR Inten    --      4.0154                 0.1646                11.1600

                     19                     20                     21
                      A                      A                      A
 Frequencies --    781.0811               843.2063               898.0580
 Red. masses --      1.2771                 1.2001                 1.9418
 Frc consts  --      0.4591                 0.5027                 0.9227
 IR Inten    --     73.5273                 2.2548                 1.1455

                     22                     23                     24
                      A                      A                      A
 Frequencies --    931.5245               972.2420              1002.4106
 Red. masses --      1.2162                 2.1995                 4.2173
 Frc consts  --      0.6218                 1.2250                 2.4968
 IR Inten    --      0.7789                 2.7115                 0.8085

                     25                     26                     27
                      A                      A                      A
 Frequencies --   1019.2442              1039.9760              1045.8067
 Red. masses --      1.1439                 2.4258                 3.0182
 Frc consts  --      0.7001                 1.5458                 1.9449
 IR Inten    --      1.6537                 1.1002                 1.1077

                     28                     29                     30
                      A                      A                      A
 Frequencies --   1068.6508              1071.6783              1109.3217
 Red. masses --      2.3266                 2.1936                 1.3070
 Frc consts  --      1.5655                 1.4844                 0.9476
 IR Inten    --      0.1038                 0.1640                 8.0328

                     31                     32                     33
                      A                      A                      A
 Frequencies --   1131.3123              1152.9787              1184.3541
 Red. masses --      1.8901                 3.3042                 2.0172
 Frc consts  --      1.4252                 2.5880                 1.6671
 IR Inten    --      3.3392                29.1411                21.2334

                     34                     35                     36
                      A                      A                      A
 Frequencies --   1213.5341              1234.1994              1256.7122
 Red. masses --      1.8406                 1.4492                 1.4395
 Frc consts  --      1.5970                 1.3006                 1.3395
 IR Inten    --      0.6292                 4.6711                 3.2484

                     37                     38                     39
                      A                      A                      A
 Frequencies --   1277.9483              1306.2376              1311.2819
 Red. masses --      1.3754                 1.3395                 1.1974
 Frc consts  --      1.3234                 1.3466                 1.2131
 IR Inten    --      0.9888                 0.2800                 1.7222

                     40                     41                     42
                      A                      A                      A
 Frequencies --   1320.9229              1332.4303              1336.1762
 Red. masses --      1.0664                 1.0783                 1.1086
 Frc consts  --      1.0963                 1.1280                 1.1662
 IR Inten    --      0.2503                 0.2377                 0.4065

                     43                     44                     45
                      A                      A                      A
 Frequencies --   1356.2885              1392.1393              1401.5149
 Red. masses --      1.3673                 1.4575                 1.6170
 Frc consts  --      1.4819                 1.6643                 1.8714
 IR Inten    --      4.7766                 0.8085                 0.5690

                     46                     47                     48
                      A                      A                      A
 Frequencies --   1410.5107              1413.3924              1459.6018
 Red. masses --      1.5343                 1.2589                 1.1807
 Frc consts  --      1.7985                 1.4817                 1.4820
 IR Inten    --     12.3431                 0.6400                 1.9883

                     49                     50                     51
                      A                      A                      A
 Frequencies --   1482.7107              1483.2652              1484.3137
 Red. masses --      1.0740                 1.0786                 1.1356
 Frc consts  --      1.3911                 1.3982                 1.4740
 IR Inten    --      0.4729                 0.8392                15.2351

                     52                     53                     54
                      A                      A                      A
 Frequencies --   1487.9465              1491.4243              1496.7284
 Red. masses --      1.0738                 1.1086                 1.0799
 Frc consts  --      1.4007                 1.4529                 1.4253
 IR Inten    --      0.5319                 2.3365                 0.8772

                     55                     56                     57
                      A                      A                      A
 Frequencies --   1499.7998              1506.2055              1514.0792
 Red. masses --      1.0403                 1.0834                 1.0892
 Frc consts  --      1.3787                 1.4481                 1.4711
 IR Inten    --      4.9021                 1.6022                 4.8166

                     58                     59                     60
                      A                      A                      A
 Frequencies --   1517.0785              1524.7989              2896.9265
 Red. masses --      1.0689                 1.0843                 1.0730
 Frc consts  --      1.4495                 1.4854                 5.3054
 IR Inten    --     11.5522                 0.8004                66.1676

                     61                     62                     63
                      A                      A                      A
 Frequencies --   2932.8632              2997.4304              2999.8450
 Red. masses --      1.0605                 1.0613                 1.0588
 Frc consts  --      5.3745                 5.6179                 5.6139
 IR Inten    --    106.5982                 3.0181                 0.6449

                     64                     65                     66
                      A                      A                      A
 Frequencies --   3000.2501              3008.4881              3015.8062
 Red. masses --      1.0618                 1.0623                 1.0617
 Frc consts  --      5.6312                 5.6648                 5.6895
 IR Inten    --      0.2222                14.2464                66.7708

                     67                     68                     69
                      A                      A                      A
 Frequencies --   3018.9311              3021.4796              3027.6126
 Red. masses --      1.0952                 1.0820                 1.0905
 Frc consts  --      5.8808                 5.8199                 5.8895
 IR Inten    --      6.7293                67.2852                 3.8970

                     70                     71                     72
                      A                      A                      A
 Frequencies --   3027.7124              3041.8342              3049.9417
 Red. masses --      1.0420                 1.1015                 1.0727
 Frc consts  --      5.6280                 6.0047                 5.8793
 IR Inten    --     44.9682                 1.0585                41.9911

                     73                     74                     75
                      A                      A                      A
 Frequencies --   3056.0274              3067.3697              3093.7818
 Red. masses --      1.1030                 1.1025                 1.1020
 Frc consts  --      6.0691                 6.1116                 6.2147
 IR Inten    --     15.8498               121.8213                61.1655

                     76                     77                     78
                      A                      A                      A
 Frequencies --   3098.5679              3099.1866              3507.7379
 Red. masses --      1.1007                 1.1009                 1.0735
 Frc consts  --      6.2265                 6.2303                 7.7821
 IR Inten    --     32.7694                40.0491                 0.4875

 - Thermochemistry -
 -------------------
 Temperature   298.150 Kelvin.  Pressure   1.00000 Atm.
 Atom     1 has atomic number  6 and mass  12.00000

 Molecular mass:   129.15175 amu.
 Principal axes and moments of inertia in atomic units:
                           1         2         3
     Eigenvalues --   183.066165179.689465269.60618
           X            1.00000  -0.00221   0.00158
           Y            0.00218   0.99978   0.02069
           Z           -0.00163  -0.02069   0.99978
 This molecule is an asymmetric top.
 Rotational symmetry number  1.
 Rotational temperatures (Kelvin)      0.47313     0.01672     0.01644
 Rotational constants (GHZ):           9.85841     0.34843     0.34248
 Zero-point vibrational energy     689232.7 (Joules/Mol)
                                  164.73057 (Kcal/Mol)
 Warning -- explicit consideration of  15 degrees of freedom as
           vibrations may cause significant error
 Vibrational temperatures:     57.19    87.16    90.47   140.19   170.64
          (Kelvin)            216.46   232.38   234.50   348.63   355.87
                              362.53   424.28   578.65   661.91   725.87
                             1053.22  1066.72  1114.99  1123.80  1213.19
                             1292.11  1340.26  1398.84  1442.25  1466.47
                             1496.29  1504.68  1537.55  1541.91  1596.07
                             1627.71  1658.88  1704.02  1746.00  1775.74
                             1808.13  1838.68  1879.38  1886.64  1900.51
                             1917.07  1922.46  1951.40  2002.98  2016.47
                             2029.41  2033.56  2100.04  2133.29  2134.09
                             2135.60  2140.82  2145.83  2153.46  2157.88
                             2167.09  2178.42  2182.74  2193.85  4168.03
                             4219.74  4312.63  4316.11  4316.69  4328.54
                             4339.07  4343.57  4347.24  4356.06  4356.20
                             4376.52  4388.19  4396.94  4413.26  4451.26
                             4458.15  4459.04  5046.85

 Zero-point correction=                           0.262515 (Hartree/Particle)
 Thermal correction to Energy=                    0.274889
 Thermal correction to Enthalpy=                  0.275834
 Thermal correction to Gibbs Free Energy=         0.223252
 Sum of electronic and zero-point Energies=           -370.818182
 Sum of electronic and thermal Energies=              -370.805807
 Sum of electronic and thermal Enthalpies=            -370.804863
 Sum of electronic and thermal Free Energies=         -370.857444

                     E (Thermal)             CV                S
                      KCal/Mol        Cal/Mol-Kelvin    Cal/Mol-Kelvin
 Total                  172.496             43.176            110.666
 Electronic               0.000              0.000              0.000
 Translational            0.889              2.981             40.481
 Rotational               0.889              2.981             29.992
 Vibrational            170.718             37.214             40.193
 Vibration     1          0.594              1.981              5.272
 Vibration     2          0.597              1.973              4.438
 Vibration     3          0.597              1.972              4.365
 Vibration     4          0.603              1.951              3.505
 Vibration     5          0.609              1.934              3.123
 Vibration     6          0.618              1.902              2.667
 Vibration     7          0.622              1.890              2.532
 Vibration     8          0.623              1.888              2.515
 Vibration     9          0.659              1.775              1.786
 Vibration    10          0.661              1.767              1.749
 Vibration    11          0.664              1.759              1.717
 Vibration    12          0.689              1.683              1.446
 Vibration    13          0.768              1.465              0.955
 Vibration    14          0.818              1.339              0.766
 Vibration    15          0.860              1.240              0.647

 Optimization completed.
    -- Stationary point found.
 Normal termination of Gaussian 16 at Tue Jun  1 21:23:30 2021.
