 Gaussian 16, Revision A.03,
 Gaussian 16:  ES64L-G16RevA.03 25-Dec-2016

 -----------------------------
 # opt freq b3lyp/6-31g(2df,p)
 -----------------------------

 -------------------
 Title Card Required
 -------------------
 Symbolic Z-matrix:
 Charge =  0 Multiplicity = 1

 SCF Done:  E(RB3LYP) =  -405.729449757     A.U. after   14 cycles
 SCF Done:  E(RB3LYP) =  -405.732648196     A.U. after   12 cycles
 SCF Done:  E(RB3LYP) =  -405.732974568     A.U. after   10 cycles
 SCF Done:  E(RB3LYP) =  -405.733021086     A.U. after    9 cycles
 SCF Done:  E(RB3LYP) =  -405.733026530     A.U. after    8 cycles
 SCF Done:  E(RB3LYP) =  -405.733026916     A.U. after    6 cycles
 Optimization completed.
    -- Stationary point found.
 Normal termination of Gaussian 16 at Mon May 31 17:48:29 2021.

 ----------------------------------------------------------------------
 #N Geom=AllCheck Guess=TCheck SCRF=Check GenChk RB3LYP/6-31G(2df,p) Fr
 eq
 ----------------------------------------------------------------------

 Structure from the checkpoint file:  "CCCCpCpdNOCC.chk"
 -------------------
 Title Card Required
 -------------------
 Charge =  0 Multiplicity = 1

                         Standard orientation:
 ---------------------------------------------------------------------
 Center     Atomic      Atomic             Coordinates (Angstroms)
 Number     Number       Type             X           Y           Z
 ---------------------------------------------------------------------
      1          6           0        4.257618   -0.546537   -0.000008
      2          6           0        2.982742    0.302225   -0.000015
      3          6           0        1.719543   -0.565226    0.000019
      4          6           0        0.381717    0.167404    0.000008
      5          6           0        0.265251    1.669992    0.000006
      6          7           0       -0.643754   -0.598340    0.000004
      7          8           0       -1.838667    0.131032    0.000000
      8          6           0       -2.938883   -0.773904   -0.000005
      9          6           0       -4.210424    0.056684   -0.000006
     10          1           0        5.153270    0.081940   -0.000032
     11          1           0        4.302616   -1.192906   -0.883484
     12          1           0        4.302634   -1.192863    0.883499
     13          1           0        2.986315    0.960123   -0.877922
     14          1           0        2.986333    0.960166    0.877859
     15          1           0        1.743872   -1.230526    0.871901
     16          1           0        1.743858   -1.230575   -0.871826
     17          1           0        1.233611    2.167684    0.000007
     18          1           0       -0.305954    1.999644    0.874238
     19          1           0       -0.305951    1.999642   -0.874228
     20          1           0       -2.884673   -1.419695    0.886060
     21          1           0       -2.884668   -1.419690   -0.886075
     22          1           0       -4.257344    0.696032    0.886382
     23          1           0       -5.086347   -0.598715   -0.000011
     24          1           0       -4.257339    0.696038   -0.886391
 ---------------------------------------------------------------------

 SCF Done:  E(RB3LYP) =  -405.733026916     A.U. after    1 cycles

 The electronic state is 1-A.
 Alpha  occ. eigenvalues --  -19.16136 -14.35115 -10.22021 -10.21342 -10.18471
 Alpha  occ. eigenvalues --  -10.18443 -10.17838 -10.17555 -10.17417  -1.06599
 Alpha  occ. eigenvalues --   -0.86885  -0.78715  -0.74251  -0.70946  -0.68436
 Alpha  occ. eigenvalues --   -0.60919  -0.58857  -0.53317  -0.47605  -0.47240
 Alpha  occ. eigenvalues --   -0.46295  -0.46110  -0.42004  -0.41895  -0.39695
 Alpha  occ. eigenvalues --   -0.38365  -0.38305  -0.37436  -0.36999  -0.35182
 Alpha  occ. eigenvalues --   -0.33920  -0.33778  -0.33477  -0.31844  -0.25566
 Alpha  occ. eigenvalues --   -0.22458
 Alpha virt. eigenvalues --    0.01279   0.08748   0.10316   0.12002   0.13077
 Alpha virt. eigenvalues --    0.13744   0.13997   0.15823   0.16089   0.16149
 Alpha virt. eigenvalues --    0.17465   0.18182   0.18594   0.18654   0.19083

 Mulliken charges:
               1
     1  C   -0.384515
     2  C   -0.180677
     3  C   -0.234041
     4  C    0.310407
     5  C   -0.467292
     6  N   -0.147892
     7  O   -0.261052
     8  C   -0.004684
     9  C   -0.394737
    10  H    0.112660
    11  H    0.116955
    12  H    0.116955
    13  H    0.102479
    14  H    0.102479
    15  H    0.121217
    16  H    0.121218
    17  H    0.118866
    18  H    0.144111
    19  H    0.144111
    20  H    0.097736
    21  H    0.097736
    22  H    0.125125
    23  H    0.117710
    24  H    0.125125
 Sum of Mulliken charges =  -0.00000

 Dipole moment (field-independent basis, Debye):
    X=              0.5254    Y=              0.5981    Z=              0.0000  Tot=              0.7961
 Quadrupole moment (field-independent basis, Debye-Ang):
   XX=            -51.1831   YY=            -57.2076   ZZ=            -56.2079
   XY=              1.3755   XZ=              0.0000   YZ=              0.0000

  Exact polarizability: 127.344   3.957  82.840   0.000  -0.000  68.937
 Approx polarizability: 145.904   8.554 120.581   0.000   0.000 105.278

 ******    1 imaginary frequencies (negative Signs) ******

                      1                      2                      3
                      A                      A                      A
 Frequencies --    -91.2247                29.4847                54.2401
 Red. masses --      1.8651                 1.2858                 1.9214
 Frc consts  --      0.0091                 0.0007                 0.0033
 IR Inten    --      0.7132                 0.0417                 0.1451

                      4                      5                      6
                      A                      A                      A
 Frequencies --     84.9303               100.3351               131.3920
 Red. masses --      2.5045                 3.3592                 1.9195
 Frc consts  --      0.0106                 0.0199                 0.0195
 IR Inten    --      4.5361                 0.2690                 0.8940

                      7                      8                      9
                      A                      A                      A
 Frequencies --    206.9603               238.3874               244.4502
 Red. masses --      2.9484                 1.1217                 1.1346
 Frc consts  --      0.0744                 0.0376                 0.0399
 IR Inten    --      1.0471                 0.3112                 0.4384

                     10                     11                     12
                      A                      A                      A
 Frequencies --    297.6251               307.1526               341.8598
 Red. masses --      4.1668                 3.5518                 3.1213
 Frc consts  --      0.2175                 0.1974                 0.2149
 IR Inten    --      0.0226                 0.1373                 0.6881

                     13                     14                     15
                      A                      A                      A
 Frequencies --    353.8496               508.2171               515.7488
 Red. masses --      2.8858                 3.0755                 4.4098
 Frc consts  --      0.2129                 0.4680                 0.6911
 IR Inten    --      1.3970                 0.0071                15.1397

                     16                     17                     18
                      A                      A                      A
 Frequencies --    633.1306               734.4703               807.2952
 Red. masses --      3.2023                 1.1259                 3.1438
 Frc consts  --      0.7563                 0.3579                 1.2072
 IR Inten    --      4.9955                 2.5376                 0.4141

                     19                     20                     21
                      A                      A                      A
 Frequencies --    813.9764               863.2946               904.1953
 Red. masses --      1.0805                 1.2113                 2.2576
 Frc consts  --      0.4218                 0.5319                 1.0875
 IR Inten    --      0.3753                 0.4217                21.7777

                     22                     23                     24
                      A                      A                      A
 Frequencies --    929.8856               986.9562              1016.7884
 Red. masses --      1.8915                 3.5602                 1.3365
 Frc consts  --      0.9636                 2.0432                 0.8141
 IR Inten    --     10.4361                94.4483                 0.1564

                     25                     26                     27
                      A                      A                      A
 Frequencies --   1029.8428              1055.1264              1079.4849
 Red. masses --      1.9889                 2.2984                 3.8656
 Frc consts  --      1.2428                 1.5076                 2.6540
 IR Inten    --     25.9659                 3.6861               151.9444

                     28                     29                     30
                      A                      A                      A
 Frequencies --   1127.0814              1130.8185              1157.4508
 Red. masses --      2.2954                 1.5878                 2.7893
 Frc consts  --      1.7180                 1.1962                 2.2016
 IR Inten    --     13.3067                 0.9190                53.1346

                     31                     32                     33
                      A                      A                      A
 Frequencies --   1188.1990              1265.3988              1280.3805
 Red. masses --      1.5329                 1.3120                 1.1111
 Frc consts  --      1.2751                 1.2378                 1.0732
 IR Inten    --      3.4471                 0.2579                 0.2352

                     34                     35                     36
                      A                      A                      A
 Frequencies --   1280.8143              1306.1185              1328.8987
 Red. masses --      3.7597                 1.4013                 1.0828
 Frc consts  --      3.6339                 1.4085                 1.1266
 IR Inten    --     29.9099                 1.4518                 0.0428

                     37                     38                     39
                      A                      A                      A
 Frequencies --   1388.8372              1391.8320              1400.8668
 Red. masses --      1.4830                 1.2995                 1.2255
 Frc consts  --      1.6854                 1.4832                 1.4169
 IR Inten    --      6.0766                10.9128                13.1157

                     40                     41                     42
                      A                      A                      A
 Frequencies --   1413.3181              1417.1498              1471.8660
 Red. masses --      1.2327                 1.3781                 1.0762
 Frc consts  --      1.4507                 1.6306                 1.3736
 IR Inten    --      1.0926                31.5742                 0.6019

                     43                     44                     45
                      A                      A                      A
 Frequencies --   1475.6306              1480.4868              1483.7241
 Red. masses --      1.0465                 1.0865                 1.0403
 Frc consts  --      1.3426                 1.4031                 1.3493
 IR Inten    --      4.2711                 5.2250                 4.7231

                     46                     47                     48
                      A                      A                      A
 Frequencies --   1494.7673              1499.3558              1500.6284
 Red. masses --      1.0494                 1.0400                 1.0451
 Frc consts  --      1.3814                 1.3775                 1.3867
 IR Inten    --      3.1484                 4.9684                 2.8935

                     49                     50                     51
                      A                      A                      A
 Frequencies --   1511.4273              1527.8650              1691.7449
 Red. masses --      1.0864                 1.0856                10.5156
 Frc consts  --      1.4622                 1.4931                17.7318
 IR Inten    --      1.3025                11.1155                 3.2488

                     52                     53                     54
                      A                      A                      A
 Frequencies --   3010.5184              3019.0567              3027.3631
 Red. masses --      1.0557                 1.0588                 1.0529
 Frc consts  --      5.6375                 5.6858                 5.6855
 IR Inten    --     57.4899                 4.2227                14.2085

                     55                     56                     57
                      A                      A                      A
 Frequencies --   3031.6223              3043.4560              3043.6625
 Red. masses --      1.0421                 1.1000                 1.0348
 Frc consts  --      5.6430                 6.0033                 5.6480
 IR Inten    --     53.8358                 0.1084                17.4934

                     58                     59                     60
                      A                      A                      A
 Frequencies --   3045.3836              3046.0355              3066.0692
 Red. masses --      1.0392                 1.1072                 1.1034
 Frc consts  --      5.6787                 6.0527                 6.1114
 IR Inten    --      9.1190                31.3578                18.3422

                     61                     62                     63
                      A                      A                      A
 Frequencies --   3093.1667              3098.1880              3104.6805
 Red. masses --      1.0979                 1.1023                 1.1010
 Frc consts  --      6.1890                 6.2343                 6.2530
 IR Inten    --      5.7176                53.1561                34.9153

                     64                     65                     66
                      A                      A                      A
 Frequencies --   3118.5543              3118.8571              3159.2626
 Red. masses --      1.1012                 1.1028                 1.0985
 Frc consts  --      6.3099                 6.3205                 6.4597
 IR Inten    --     27.6297                32.1998                16.4681

 - Thermochemistry -
 -------------------
 Temperature   298.150 Kelvin.  Pressure   1.00000 Atm.
 Atom     1 has atomic number  6 and mass  12.00000

 Molecular mass:   129.11536 amu.
 Principal axes and moments of inertia in atomic units:
                           1         2         3
     Eigenvalues --   321.973723275.096793530.17971
           X            1.00000  -0.00192   0.00000
           Y            0.00192   1.00000  -0.00000
           Z           -0.00000   0.00000   1.00000
 This molecule is an asymmetric top.
 Rotational symmetry number  1.
 Rotational temperatures (Kelvin)      0.26901     0.02645     0.02454
 Rotational constants (GHZ):           5.60524     0.55105     0.51123
    1 imaginary frequencies ignored.
 Zero-point vibrational energy     559311.7 (Joules/Mol)
                                  133.67871 (Kcal/Mol)
 Warning -- explicit consideration of  14 degrees of freedom as
           vibrations may cause significant error
 Vibrational temperatures:     42.42    78.04   122.20   144.36   189.04
          (Kelvin)            297.77   342.99   351.71   428.22   441.92
                              491.86   509.11   731.21   742.05   910.93
                             1056.74  1161.52  1171.13  1242.09  1300.94
                             1337.90  1420.01  1462.93  1481.71  1518.09
                             1553.14  1621.62  1627.00  1665.31  1709.55
                             1820.63  1842.18  1842.81  1879.21  1911.99
                             1998.23  2002.54  2015.53  2033.45  2038.96
                             2117.69  2123.10  2130.09  2134.75  2150.64
                             2157.24  2159.07  2174.61  2198.26  2434.04
                             4331.46  4343.75  4355.70  4361.83  4378.85
                             4379.15  4381.63  4382.57  4411.39  4450.38
                             4457.60  4466.94  4486.90  4487.34  4545.47

 Zero-point correction=                           0.213031 (Hartree/Particle)
 Thermal correction to Energy=                    0.224225
 Thermal correction to Enthalpy=                  0.225170
 Thermal correction to Gibbs Free Energy=         0.175108
 Sum of electronic and zero-point Energies=           -405.519996
 Sum of electronic and thermal Energies=              -405.508802
 Sum of electronic and thermal Enthalpies=            -405.507857
 Sum of electronic and thermal Free Energies=         -405.557919

                     E (Thermal)             CV                S
                      KCal/Mol        Cal/Mol-Kelvin    Cal/Mol-Kelvin
 Total                  140.704             39.271            105.364
 Electronic               0.000              0.000              0.000
 Translational            0.889              2.981             40.480
 Rotational               0.889              2.981             29.700
 Vibrational            138.926             33.310             35.185
 Vibration     1          0.593              1.984              5.864
 Vibration     2          0.596              1.976              4.656
 Vibration     3          0.601              1.960              3.774
 Vibration     4          0.604              1.949              3.448
 Vibration     5          0.612              1.922              2.926
 Vibration     6          0.641              1.830              2.070
 Vibration     7          0.656              1.782              1.815
 Vibration     8          0.660              1.772              1.770
 Vibration     9          0.691              1.678              1.430
 Vibration    10          0.697              1.660              1.378
 Vibration    11          0.721              1.592              1.203
 Vibration    12          0.730              1.567              1.149
 Vibration    13          0.863              1.232              0.638
 Vibration    14          0.871              1.215              0.620

 Optimization completed.
    -- Stationary point found.
 Normal termination of Gaussian 16 at Mon May 31 18:15:54 2021.
