 Gaussian 16, Revision A.03,
 Gaussian 16:  ES64L-G16RevA.03 25-Dec-2016

 -----------------------------
 # opt freq b3lyp/6-31g(2df,p)
 -----------------------------

 -------------------
 Title Card Required
 -------------------
 Symbolic Z-matrix:
 Charge =  0 Multiplicity = 1

 SCF Done:  E(RB3LYP) =  -419.383233872     A.U. after   15 cycles
 SCF Done:  E(RB3LYP) =  -419.386320278     A.U. after   12 cycles
 SCF Done:  E(RB3LYP) =  -419.386484103     A.U. after   10 cycles
 SCF Done:  E(RB3LYP) =  -419.386498596     A.U. after    9 cycles
 SCF Done:  E(RB3LYP) =  -419.386498829     A.U. after    8 cycles
 SCF Done:  E(RB3LYP) =  -419.386499741     A.U. after    8 cycles
 Optimization completed.
    -- Stationary point found.
 Normal termination of Gaussian 16 at Mon May 31 22:39:26 2021.

 ----------------------------------------------------------------------
 #N Geom=AllCheck Guess=TCheck SCRF=Check GenChk RB3LYP/6-31G(2df,p) Fr
 eq
 ----------------------------------------------------------------------

 Structure from the checkpoint file:  "CCCdNCdCpNpCdO.chk"
 -------------------
 Title Card Required
 -------------------
 Charge =  0 Multiplicity = 1

                         Standard orientation:
 ---------------------------------------------------------------------
 Center     Atomic      Atomic             Coordinates (Angstroms)
 Number     Number       Type             X           Y           Z
 ---------------------------------------------------------------------
      1          6           0        4.365897   -0.377431    0.000009
      2          6           0        3.114820    0.504622    0.000004
      3          6           0        1.833027   -0.285261   -0.000004
      4          7           0        0.684875    0.277697   -0.000003
      5          6           0       -0.454811   -0.497317   -0.000010
      6          6           0       -1.689736    0.078695   -0.000011
      7          7           0       -1.942560    1.410581   -0.000005
      8          6           0       -2.872689   -0.798402   -0.000020
      9          8           0       -4.010651   -0.376937    0.000027
     10          1           0        5.274684    0.230272    0.000014
     11          1           0        4.396251   -1.023356   -0.883948
     12          1           0        4.396242   -1.023358    0.883964
     13          1           0        3.116420    1.170264   -0.872964
     14          1           0        3.116411    1.170262    0.872972
     15          1           0        1.925968   -1.383993   -0.000011
     16          1           0       -0.381861   -1.586910   -0.000017
     17          1           0       -1.184054    2.067135    0.000008
     18          1           0       -2.901088    1.711805    0.000000
     19          1           0       -2.649028   -1.884017    0.000020
 ---------------------------------------------------------------------

 SCF Done:  E(RB3LYP) =  -419.386499741     A.U. after    1 cycles

 The electronic state is 1-A.
 Alpha  occ. eigenvalues --  -19.13537 -14.33505 -14.32992 -10.26591 -10.22821
 Alpha  occ. eigenvalues --  -10.22464 -10.20559 -10.19394 -10.18501  -1.04152
 Alpha  occ. eigenvalues --   -0.93820  -0.90723  -0.78774  -0.74958  -0.67318
 Alpha  occ. eigenvalues --   -0.62033  -0.56831  -0.56083  -0.53642  -0.49701
 Alpha  occ. eigenvalues --   -0.45755  -0.45705  -0.44669  -0.42549  -0.41100
 Alpha  occ. eigenvalues --   -0.40962  -0.37642  -0.37376  -0.36057  -0.34882
 Alpha  occ. eigenvalues --   -0.31249  -0.26326  -0.25566  -0.19791
 Alpha virt. eigenvalues --   -0.06339   0.01643   0.09733   0.10249   0.10783
 Alpha virt. eigenvalues --    0.11326   0.12498   0.14700   0.14921   0.15452
 Alpha virt. eigenvalues --    0.16137   0.19007   0.19746   0.22445   0.23197

 Mulliken charges:
               1
     1  C   -0.387593
     2  C   -0.239681
     3  C    0.048801
     4  N   -0.211891
     5  C   -0.073527
     6  C    0.222517
     7  N   -0.580746
     8  C    0.121282
     9  O   -0.296819
    10  H    0.120674
    11  H    0.121936
    12  H    0.121936
    13  H    0.126245
    14  H    0.126245
    15  H    0.084445
    16  H    0.080928
    17  H    0.265556
    18  H    0.266934
    19  H    0.082758
 Sum of Mulliken charges =   0.00000

 Dipole moment (field-independent basis, Debye):
    X=              3.1917    Y=              0.0744    Z=             -0.0000  Tot=              3.1926
 Quadrupole moment (field-independent basis, Debye-Ang):
   XX=            -61.3311   YY=            -47.8005   ZZ=            -54.6848
   XY=             -2.5893   XZ=              0.0002   YZ=              0.0001

  Exact polarizability: 179.629  -7.365  79.266  -0.000   0.000  47.754
 Approx polarizability: 287.106 -28.891 121.596  -0.001   0.000  74.063

 ******    2 imaginary frequencies (negative Signs) ******

                      1                      2                      3
                      A                      A                      A
 Frequencies --   -310.4763               -76.7676                73.1564
 Red. masses --      1.3254                 2.1254                 5.7946
 Frc consts  --      0.0753                 0.0074                 0.0183
 IR Inten    --    157.1276                 2.2787                 0.7186

                      4                      5                      6
                      A                      A                      A
 Frequencies --     85.4095               151.5779               199.3763
 Red. masses --      4.4126                 1.7252                 2.5703
 Frc consts  --      0.0190                 0.0234                 0.0602
 IR Inten    --      0.5598                12.0374                40.0717

                      7                      8                      9
                      A                      A                      A
 Frequencies --    220.6839               251.8034               261.8609
 Red. masses --      3.4940                 1.4131                 3.9821
 Frc consts  --      0.1003                 0.0528                 0.1609
 IR Inten    --      2.9521                 3.0044                13.4572

                     10                     11                     12
                      A                      A                      A
 Frequencies --    356.2665               392.4562               426.7181
 Red. masses --      4.8143                 2.4791                 3.4782
 Frc consts  --      0.3600                 0.2250                 0.3732
 IR Inten    --      2.7405                 0.0449                16.7642

                     13                     14                     15
                      A                      A                      A
 Frequencies --    524.3341               574.2583               612.7490
 Red. masses --      1.1867                 5.7883                 2.6952
 Frc consts  --      0.1922                 1.1247                 0.5962
 IR Inten    --      2.5515                 3.9686                 1.4135

                     16                     17                     18
                      A                      A                      A
 Frequencies --    723.9879               729.4944               808.5847
 Red. masses --      3.2580                 1.1665                 1.2589
 Frc consts  --      1.0061                 0.3658                 0.4849
 IR Inten    --     13.7542                 1.8585                11.3135

                     19                     20                     21
                      A                      A                      A
 Frequencies --    916.6360               921.6780               965.4036
 Red. masses --      1.3559                 1.8657                 2.9715
 Frc consts  --      0.6712                 0.9338                 1.6317
 IR Inten    --      5.1145                 0.3177                41.4159

                     22                     23                     24
                      A                      A                      A
 Frequencies --    999.6919              1051.0905              1077.7172
 Red. masses --      1.7805                 2.8914                 1.9835
 Frc consts  --      1.0484                 1.8821                 1.3574
 IR Inten    --      0.1421                 2.4285                84.9256

                     25                     26                     27
                      A                      A                      A
 Frequencies --   1104.9462              1147.2005              1186.6556
 Red. masses --      1.5790                 2.1043                 3.8297
 Frc consts  --      1.1359                 1.6317                 3.1774
 IR Inten    --      1.2078                 3.2431                19.4985

                     28                     29                     30
                      A                      A                      A
 Frequencies --   1273.0187              1274.1390              1329.2082
 Red. masses --      1.1873                 1.4265                 1.4215
 Frc consts  --      1.1337                 1.3645                 1.4798
 IR Inten    --      0.0029                40.1285                51.6803

                     31                     32                     33
                      A                      A                      A
 Frequencies --   1392.3073              1415.4036              1422.0201
 Red. masses --      1.3478                 1.2481                 1.4927
 Frc consts  --      1.5394                 1.4732                 1.7784
 IR Inten    --      8.0883                 0.4580                12.8744

                     34                     35                     36
                      A                      A                      A
 Frequencies --   1457.8155              1463.4183              1500.5827
 Red. masses --      1.6466                 1.1695                 1.0383
 Frc consts  --      2.0618                 1.4757                 1.3775
 IR Inten    --    112.0133                19.5175                 5.0767

                     37                     38                     39
                      A                      A                      A
 Frequencies --   1504.6017              1587.8723              1662.2882
 Red. masses --      1.0530                 1.4247                 6.5211
 Frc consts  --      1.4045                 2.1165                10.6166
 IR Inten    --      4.3648               219.1197                48.0154

                     40                     41                     42
                      A                      A                      A
 Frequencies --   1703.5345              1772.7751              2931.4057
 Red. masses --      7.3997                 9.0096                 1.0848
 Frc consts  --     12.6522                16.6826                 5.4923
 IR Inten    --    127.5605               424.2344                69.8474

                     43                     44                     45
                      A                      A                      A
 Frequencies --   2977.3612              3021.4226              3036.4071
 Red. masses --      1.0835                 1.0601                 1.0363
 Frc consts  --      5.6589                 5.7022                 5.6291
 IR Inten    --     42.9749                10.9185                33.8070

                     46                     47                     48
                      A                      A                      A
 Frequencies --   3046.4829              3093.0970              3100.9957
 Red. masses --      1.1003                 1.0866                 1.1019
 Frc consts  --      6.0165                 6.1250                 6.2430
 IR Inten    --      6.7550                25.3366                32.8970

                     49                     50                     51
                      A                      A                      A
 Frequencies --   3114.9732              3624.1813              3764.5701
 Red. masses --      1.1007                 1.0425                 1.1057
 Frc consts  --      6.2924                 8.0675                 9.2329
 IR Inten    --     28.2799               100.0206                53.6526

 - Thermochemistry -
 -------------------
 Temperature   298.150 Kelvin.  Pressure   1.00000 Atm.
 Atom     1 has atomic number  6 and mass  12.00000

 Molecular mass:   126.07931 amu.
 Principal axes and moments of inertia in atomic units:
                           1         2         3
     Eigenvalues --   253.397743380.831783612.00994
           X            0.99998  -0.00569   0.00000
           Y            0.00569   0.99998   0.00000
           Z           -0.00000  -0.00000   1.00000
 This molecule is an asymmetric top.
 Rotational symmetry number  1.
 Rotational temperatures (Kelvin)      0.34181     0.02562     0.02398
 Rotational constants (GHZ):           7.12217     0.53382     0.49965
    2 imaginary frequencies ignored.
 Zero-point vibrational energy     408127.7 (Joules/Mol)
                                   97.54486 (Kcal/Mol)
 Warning -- explicit consideration of  13 degrees of freedom as
           vibrations may cause significant error
 Vibrational temperatures:    105.26   122.89   218.09   286.86   317.51
          (Kelvin)            362.29   376.76   512.59   564.66   613.95
                              754.40   826.23   881.61  1041.66  1049.58
                             1163.37  1318.83  1326.09  1389.00  1438.33
                             1512.28  1550.59  1589.77  1650.57  1707.33
                             1831.59  1833.20  1912.43  2003.22  2036.45
                             2045.97  2097.47  2105.53  2159.00  2164.79
                             2284.59  2391.66  2451.01  2550.63  4217.64
                             4283.76  4347.15  4368.71  4383.21  4450.28
                             4461.64  4481.75  5214.39  5416.38

 Zero-point correction=                           0.155448 (Hartree/Particle)
 Thermal correction to Energy=                    0.164673
 Thermal correction to Enthalpy=                  0.165617
 Thermal correction to Gibbs Free Energy=         0.120902
 Sum of electronic and zero-point Energies=           -419.231052
 Sum of electronic and thermal Energies=              -419.221827
 Sum of electronic and thermal Enthalpies=            -419.220882
 Sum of electronic and thermal Free Energies=         -419.265598

                     E (Thermal)             CV                S
                      KCal/Mol        Cal/Mol-Kelvin    Cal/Mol-Kelvin
 Total                  103.334             33.231             94.112
 Electronic               0.000              0.000              0.000
 Translational            0.889              2.981             40.409
 Rotational               0.889              2.981             29.516
 Vibrational            101.557             27.269             24.187
 Vibration     1          0.599              1.967              4.067
 Vibration     2          0.601              1.959              3.763
 Vibration     3          0.619              1.901              2.652
 Vibration     4          0.637              1.841              2.139
 Vibration     5          0.647              1.810              1.953
 Vibration     6          0.664              1.760              1.718
 Vibration     7          0.669              1.743              1.649
 Vibration     8          0.732              1.562              1.138
 Vibration     9          0.760              1.486              0.991
 Vibration    10          0.788              1.412              0.869
 Vibration    11          0.879              1.196              0.600
 Vibration    12          0.931              1.087              0.496
 Vibration    13          0.972              1.005              0.428

 Optimization completed.
    -- Stationary point found.
 Normal termination of Gaussian 16 at Mon May 31 23:03:18 2021.
