 Gaussian 16, Revision A.03,
 Gaussian 16:  ES64L-G16RevA.03 25-Dec-2016

 -----------------------------
 # opt freq b3lyp/6-31g(2df,p)
 -----------------------------

 -------------------
 Title Card Required
 -------------------
 Symbolic Z-matrix:
 Charge =  0 Multiplicity = 1

 SCF Done:  E(RB3LYP) =  -328.085859114     A.U. after   14 cycles
 SCF Done:  E(RB3LYP) =  -328.111110409     A.U. after   13 cycles
 SCF Done:  E(RB3LYP) =  -328.111710825     A.U. after   11 cycles
 SCF Done:  E(RB3LYP) =  -328.111731942     A.U. after   10 cycles
 SCF Done:  E(RB3LYP) =  -328.111734883     A.U. after    9 cycles
 SCF Done:  E(RB3LYP) =  -328.111737854     A.U. after    8 cycles
 Optimization completed.
    -- Stationary point found.
 Normal termination of Gaussian 16 at Mon May 31 21:16:10 2021.

 ----------------------------------------------------------------------
 #N Geom=AllCheck Guess=TCheck SCRF=Check GenChk RB3LYP/6-31G(2df,p) Fr
 eq
 ----------------------------------------------------------------------

 Structure from the checkpoint file:  "CCCdCpCpCCtN.chk"
 -------------------
 Title Card Required
 -------------------
 Charge =  0 Multiplicity = 1

                         Standard orientation:
 ---------------------------------------------------------------------
 Center     Atomic      Atomic             Coordinates (Angstroms)
 Number     Number       Type             X           Y           Z
 ---------------------------------------------------------------------
      1          6           0       -3.594111   -0.425444    0.000007
      2          6           0       -2.324158    0.432571    0.000004
      3          6           0       -1.060919   -0.399276   -0.000002
      4          6           0        0.194985    0.051724   -0.000007
      5          6           0        0.570202    1.507503   -0.000007
      6          6           0        1.334603   -0.977476   -0.000013
      7          6           0        2.683518   -0.413612    0.000004
      8          7           0        3.753169    0.023715    0.000017
      9          1           0       -4.492695    0.198042    0.000011
     10          1           0       -3.633757   -1.070787    0.884082
     11          1           0       -3.633763   -1.070786   -0.884069
     12          1           0       -2.337289    1.096547    0.874397
     13          1           0       -2.337295    1.096549   -0.874388
     14          1           0       -1.215958   -1.478875   -0.000001
     15          1           0       -0.310716    2.150680   -0.000003
     16          1           0        1.179779    1.760107   -0.875972
     17          1           0        1.179787    1.760107    0.875952
     18          1           0        1.252507   -1.631751   -0.876167
     19          1           0        1.252495   -1.631774    0.876123
 ---------------------------------------------------------------------

 SCF Done:  E(RB3LYP) =  -328.111737854     A.U. after    1 cycles

 The electronic state is 1-A.
 Alpha  occ. eigenvalues --  -14.32463 -10.23617 -10.21880 -10.20703 -10.19367
 Alpha  occ. eigenvalues --  -10.18746 -10.18717 -10.18237  -0.89998  -0.83477
 Alpha  occ. eigenvalues --   -0.78139  -0.73310  -0.69180  -0.62093  -0.53591
 Alpha  occ. eigenvalues --   -0.50630  -0.47885  -0.47179  -0.45058  -0.43035
 Alpha  occ. eigenvalues --   -0.40976  -0.38536  -0.37995  -0.36523  -0.35884
 Alpha  occ. eigenvalues --   -0.35252  -0.34443  -0.32510  -0.31837  -0.24460
 Alpha virt. eigenvalues --    0.00328   0.03617   0.04553   0.08896   0.10094
 Alpha virt. eigenvalues --    0.11515   0.13225   0.14477   0.15318   0.15884
 Alpha virt. eigenvalues --    0.16633   0.16661   0.18103   0.18171   0.20385

 Mulliken charges:
               1
     1  C   -0.387763
     2  C   -0.230964
     3  C   -0.095031
     4  C    0.270658
     5  C   -0.478202
     6  C   -0.423407
     7  C    0.256525
     8  N   -0.312708
     9  H    0.115267
    10  H    0.119458
    11  H    0.119458
    12  H    0.114829
    13  H    0.114829
    14  H    0.075488
    15  H    0.122583
    16  H    0.143423
    17  H    0.143424
    18  H    0.166067
    19  H    0.166066
 Sum of Mulliken charges =  -0.00000

 Dipole moment (field-independent basis, Debye):
    X=             -3.8121    Y=             -0.9123    Z=             -0.0000  Tot=              3.9197
 Quadrupole moment (field-independent basis, Debye-Ang):
   XX=            -66.7282   YY=            -46.0954   ZZ=            -48.8592
   XY=             -2.7750   XZ=             -0.0001   YZ=              0.0000

  Exact polarizability: 112.927   7.336  71.423   0.000   0.000  54.836
 Approx polarizability: 150.896  17.792 104.539   0.000   0.000  84.592

 ******    2 imaginary frequencies (negative Signs) ******

                      1                      2                      3
                      A                      A                      A
 Frequencies --    -86.3024               -44.2716               119.6205
 Red. masses --      2.8312                 2.4671                 4.8664
 Frc consts  --      0.0124                 0.0028                 0.0410
 IR Inten    --      5.1107                 2.8566                 5.3192

                      4                      5                      6
                      A                      A                      A
 Frequencies --    151.3081               182.5804               199.6855
 Red. masses --      1.1069                 1.3530                 3.9424
 Frc consts  --      0.0149                 0.0266                 0.0926
 IR Inten    --      0.6400                 0.6950                 2.1249

                      7                      8                      9
                      A                      A                      A
 Frequencies --    275.9365               315.8764               366.5694
 Red. masses --      1.3709                 3.0499                 3.4928
 Frc consts  --      0.0615                 0.1793                 0.2765
 IR Inten    --      0.9939                 0.2809                 1.4322

                     10                     11                     12
                      A                      A                      A
 Frequencies --    387.7411               441.8596               450.3861
 Red. masses --      3.3165                 5.2513                 2.2995
 Frc consts  --      0.2938                 0.6041                 0.2748
 IR Inten    --      0.2704                 2.7550                 4.0480

                     13                     14                     15
                      A                      A                      A
 Frequencies --    624.6760               750.2250               810.7524
 Red. masses --      3.8448                 1.1426                 3.6111
 Frc consts  --      0.8840                 0.3789                 1.3985
 IR Inten    --      1.1115                 6.1850                 0.3012

                     16                     17                     18
                      A                      A                      A
 Frequencies --    843.3528               901.2064               942.1606
 Red. masses --      1.3507                 2.6041                 1.5874
 Frc consts  --      0.5660                 1.2461                 0.8302
 IR Inten    --      0.5775                 2.4756                 3.6840

                     19                     20                     21
                      A                      A                      A
 Frequencies --    978.0536              1025.6065              1062.9316
 Red. masses --      2.6452                 1.8675                 1.4860
 Frc consts  --      1.4908                 1.1574                 0.9892
 IR Inten    --      0.2676                 4.2003                 0.1570

                     22                     23                     24
                      A                      A                      A
 Frequencies --   1065.6618              1100.6693              1120.7930
 Red. masses --      2.2704                 1.5181                 2.0699
 Frc consts  --      1.5191                 1.0836                 1.5319
 IR Inten    --      2.5739                 1.5516                12.2445

                     25                     26                     27
                      A                      A                      A
 Frequencies --   1208.2693              1225.6443              1288.5277
 Red. masses --      2.5277                 1.1113                 1.1692
 Frc consts  --      2.1742                 0.9836                 1.1438
 IR Inten    --      8.0443                 0.0009                 0.2709

                     28                     29                     30
                      A                      A                      A
 Frequencies --   1297.6867              1335.4841              1394.0254
 Red. masses --      1.4638                 1.3962                 1.3816
 Frc consts  --      1.4524                 1.4671                 1.5819
 IR Inten    --      8.9771                 6.0392                 7.9031

                     31                     32                     33
                      A                      A                      A
 Frequencies --   1412.4106              1422.2377              1454.5528
 Red. masses --      1.2344                 1.3372                 1.0869
 Frc consts  --      1.4509                 1.5937                 1.3549
 IR Inten    --      0.2430                 5.8000                 3.9818

                     34                     35                     36
                      A                      A                      A
 Frequencies --   1476.7080              1483.9392              1484.9945
 Red. masses --      1.0689                 1.0434                 1.0640
 Frc consts  --      1.3733                 1.3537                 1.3824
 IR Inten    --      3.9610                 6.3685                 7.5764

                     37                     38                     39
                      A                      A                      A
 Frequencies --   1499.8615              1505.4751              1732.4150
 Red. masses --      1.0387                 1.0560                 7.8158
 Frc consts  --      1.3767                 1.4102                13.8207
 IR Inten    --      4.1165                 2.1657                 4.1398

                     40                     41                     42
                      A                      A                      A
 Frequencies --   2362.0299              3011.7877              3029.2292
 Red. masses --     12.6155                 1.0594                 1.0400
 Frc consts  --     41.4691                 5.6621                 5.6227
 IR Inten    --     12.6308                15.2620                14.7376

                     43                     44                     45
                      A                      A                      A
 Frequencies --   3033.6998              3034.8642              3035.7981
 Red. masses --      1.0357                 1.0585                 1.1011
 Frc consts  --      5.6162                 5.7440                 5.9791
 IR Inten    --     28.2870                 3.1840                13.2428

                     46                     47                     48
                      A                      A                      A
 Frequencies --   3066.3434              3074.7161              3099.9946
 Red. masses --      1.1009                 1.0983                 1.1021
 Frc consts  --      6.0985                 6.1174                 6.2400
 IR Inten    --      1.7872                 9.0441                35.4250

                     49                     50                     51
                      A                      A                      A
 Frequencies --   3109.3775              3115.6402              3138.0447
 Red. masses --      1.0990                 1.0899                 1.0975
 Frc consts  --      6.2601                 6.2336                 6.3677
 IR Inten    --     13.5333                33.4056                18.4065

 - Thermochemistry -
 -------------------
 Temperature   298.150 Kelvin.  Pressure   1.00000 Atm.
 Atom     1 has atomic number  6 and mass  12.00000

 Molecular mass:   109.08915 amu.
 Principal axes and moments of inertia in atomic units:
                           1         2         3
     Eigenvalues --   273.523692188.831102417.99931
           X            0.99999   0.00522  -0.00000
           Y           -0.00522   0.99999   0.00000
           Z            0.00000  -0.00000   1.00000
 This molecule is an asymmetric top.
 Rotational symmetry number  1.
 Rotational temperatures (Kelvin)      0.31666     0.03957     0.03582
 Rotational constants (GHZ):           6.59812     0.82452     0.74638
    2 imaginary frequencies ignored.
 Zero-point vibrational energy     427374.3 (Joules/Mol)
                                  102.14492 (Kcal/Mol)
 Warning -- explicit consideration of  10 degrees of freedom as
           vibrations may cause significant error
 Vibrational temperatures:    172.11   217.70   262.69   287.30   397.01
          (Kelvin)            454.48   527.41   557.87   635.74   648.01
                              898.77  1079.41  1166.49  1213.40  1296.64
                             1355.56  1407.20  1475.62  1529.32  1533.25
                             1583.62  1612.57  1738.43  1763.43  1853.90
                             1867.08  1921.46  2005.69  2032.14  2046.28
                             2092.78  2124.65  2135.06  2136.58  2157.97
                             2166.04  2492.56  3398.43  4333.29  4358.39
                             4364.82  4366.49  4367.84  4411.78  4423.83
                             4460.20  4473.70  4482.71  4514.95

 Zero-point correction=                           0.162778 (Hartree/Particle)
 Thermal correction to Energy=                    0.170931
 Thermal correction to Enthalpy=                  0.171875
 Thermal correction to Gibbs Free Energy=         0.130264
 Sum of electronic and zero-point Energies=           -327.948960
 Sum of electronic and thermal Energies=              -327.940807
 Sum of electronic and thermal Enthalpies=            -327.939863
 Sum of electronic and thermal Free Energies=         -327.981474

                     E (Thermal)             CV                S
                      KCal/Mol        Cal/Mol-Kelvin    Cal/Mol-Kelvin
 Total                  107.261             30.073             87.578
 Electronic               0.000              0.000              0.000
 Translational            0.889              2.981             39.977
 Rotational               0.889              2.981             28.761
 Vibrational            105.483             24.111             18.839
 Vibration     1          0.609              1.933              3.106
 Vibration     2          0.619              1.901              2.656
 Vibration     3          0.630              1.863              2.302
 Vibration     4          0.638              1.840              2.136
 Vibration     5          0.678              1.718              1.559
 Vibration     6          0.703              1.643              1.331
 Vibration     7          0.739              1.541              1.094
 Vibration     8          0.756              1.496              1.009
 Vibration     9          0.802              1.379              0.821
 Vibration    10          0.809              1.360              0.795

 Optimization completed.
    -- Stationary point found.
 Normal termination of Gaussian 16 at Mon May 31 21:37:30 2021.
