 Gaussian 16, Revision A.03,
 Gaussian 16:  ES64L-G16RevA.03 25-Dec-2016

 -----------------------------
 # opt freq b3lyp/6-31g(2df,p)
 -----------------------------

 -------------------
 Title Card Required
 -------------------
 Symbolic Z-matrix:
 Charge =  0 Multiplicity = 1

 SCF Done:  E(RB3LYP) =  -419.097207524     A.U. after   12 cycles
 SCF Done:  E(RB3LYP) =  -419.100608657     A.U. after   11 cycles
 SCF Done:  E(RB3LYP) =  -419.107327615     A.U. after   11 cycles
 SCF Done:  E(RB3LYP) =  -419.110507184     A.U. after   11 cycles
 SCF Done:  E(RB3LYP) =  -419.111830790     A.U. after   11 cycles
 SCF Done:  E(RB3LYP) =  -419.110794686     A.U. after   11 cycles
 SCF Done:  E(RB3LYP) =  -419.112872564     A.U. after   11 cycles
 SCF Done:  E(RB3LYP) =  -419.113082465     A.U. after   10 cycles
 SCF Done:  E(RB3LYP) =  -419.113177475     A.U. after   10 cycles
 SCF Done:  E(RB3LYP) =  -419.113273442     A.U. after   10 cycles
 SCF Done:  E(RB3LYP) =  -419.122274103     A.U. after   10 cycles
 SCF Done:  E(RB3LYP) =  -419.122290966     A.U. after    8 cycles
 SCF Done:  E(RB3LYP) =  -419.122301150     A.U. after    8 cycles
 SCF Done:  E(RB3LYP) =  -419.122303532     A.U. after    7 cycles
 SCF Done:  E(RB3LYP) =  -419.122306254     A.U. after    8 cycles
 SCF Done:  E(RB3LYP) =  -419.122307376     A.U. after    7 cycles
 SCF Done:  E(RB3LYP) =  -419.122307908     A.U. after    7 cycles
 SCF Done:  E(RB3LYP) =  -419.122308224     A.U. after    7 cycles
 SCF Done:  E(RB3LYP) =  -419.122308303     A.U. after    6 cycles
 Optimization completed.
    -- Stationary point found.
 Normal termination of Gaussian 16 at Tue Jun  1 06:45:40 2021.

 ----------------------------------------------------------------------
 #N Geom=AllCheck Guess=TCheck SCRF=Check GenChk RB3LYP/6-31G(2df,p) Fr
 eq
 ----------------------------------------------------------------------

 Structure from the checkpoint file:  "CCCNpCNpNpCpN.chk"
 -------------------
 Title Card Required
 -------------------
 Charge =  0 Multiplicity = 1

                         Standard orientation:
 ---------------------------------------------------------------------
 Center     Atomic      Atomic             Coordinates (Angstroms)
 Number     Number       Type             X           Y           Z
 ---------------------------------------------------------------------
      1          6           0        3.085670   -1.248644   -0.245680
      2          6           0        1.992666   -0.374751    0.374953
      3          6           0        0.680779   -0.440962   -0.416867
      4          7           0       -0.412130    0.336378    0.188662
      5          6           0       -0.523492    1.713600   -0.265685
      6          7           0        0.605170    2.499765    0.225491
      7          7           0       -1.709309   -0.277860    0.188122
      8          6           0       -2.144950   -0.835571   -1.089278
      9          7           0       -1.838823   -1.274620    1.186588
     10          1           0        4.012814   -1.193915    0.333052
     11          1           0        3.316374   -0.930654   -1.268862
     12          1           0        2.784554   -2.302232   -0.289647
     13          1           0        2.318040    0.666906    0.426502
     14          1           0        1.790646   -0.694734    1.404628
     15          1           0        0.364269   -1.490304   -0.463703
     16          1           0        0.860417   -0.125928   -1.459422
     17          1           0       -1.509663    2.055419    0.076399
     18          1           0       -0.504700    1.796429   -1.369689
     19          1           0        0.520782    2.620157    1.230622
     20          1           0        0.586896    3.424113   -0.193716
     21          1           0       -2.036359   -0.076726   -1.869120
     22          1           0       -3.198803   -1.104995   -0.997822
     23          1           0       -1.589082   -1.736718   -1.399130
     24          1           0       -1.688284   -0.807101    2.076415
     25          1           0       -1.086301   -1.967390    1.096794
 ---------------------------------------------------------------------

 SCF Done:  E(RB3LYP) =  -419.122308303     A.U. after    1 cycles

 The electronic state is 1-A.
 Alpha  occ. eigenvalues --  -14.36327 -14.33395 -14.33000 -14.30848 -10.22376
 Alpha  occ. eigenvalues --  -10.19781 -10.19552 -10.16741 -10.16572  -1.00063
 Alpha  occ. eigenvalues --   -0.89986  -0.84714  -0.77644  -0.74972  -0.68010
 Alpha  occ. eigenvalues --   -0.65011  -0.59536  -0.56442  -0.51461  -0.49741
 Alpha  occ. eigenvalues --   -0.48512  -0.46950  -0.44065  -0.43325  -0.42200
 Alpha  occ. eigenvalues --   -0.41029  -0.39299  -0.38893  -0.37491  -0.36386
 Alpha  occ. eigenvalues --   -0.35166  -0.33108  -0.32093  -0.26444  -0.23989
 Alpha  occ. eigenvalues --   -0.22709  -0.20638
 Alpha virt. eigenvalues --    0.07496   0.08918   0.10238   0.11563   0.12531
 Alpha virt. eigenvalues --    0.14600   0.15156   0.15509   0.16225   0.16794
 Alpha virt. eigenvalues --    0.17328   0.17673   0.18236   0.19037   0.19878

 Mulliken charges:
               1
     1  C   -0.380799
     2  C   -0.168679
     3  C   -0.124291
     4  N   -0.069867
     5  C   -0.095954
     6  N   -0.494577
     7  N   -0.059546
     8  C   -0.295807
     9  N   -0.443226
    10  H    0.111259
    11  H    0.113337
    12  H    0.105994
    13  H    0.125678
    14  H    0.084488
    15  H    0.089837
    16  H    0.084249
    17  H    0.094268
    18  H    0.075375
    19  H    0.226133
    20  H    0.225722
    21  H    0.118984
    22  H    0.135118
    23  H    0.096111
    24  H    0.235845
    25  H    0.210348
 Sum of Mulliken charges =  -0.00000

 Dipole moment (field-independent basis, Debye):
    X=              0.5223    Y=              0.8450    Z=             -0.2024  Tot=              1.0138
 Quadrupole moment (field-independent basis, Debye-Ang):
   XX=            -64.5737   YY=            -52.3360   ZZ=            -54.6976
   XY=             -2.3495   XZ=              2.2565   YZ=              0.6152

  Exact polarizability:  94.371   1.594  90.190   1.342  -1.818  79.916
 Approx polarizability: 119.734   2.975 123.798  -0.671  -3.977 119.835

                      1                      2                      3
                      A                      A                      A
 Frequencies --     43.2938                79.9678                93.8904
 Red. masses --      2.0666                 2.2372                 2.8720
 Frc consts  --      0.0023                 0.0084                 0.0149
 IR Inten    --      0.5296                 0.0286                 0.9647

                      4                      5                      6
                      A                      A                      A
 Frequencies --    111.6125               158.8303               225.7333
 Red. masses --      2.3741                 2.6390                 2.1905
 Frc consts  --      0.0174                 0.0392                 0.0658
 IR Inten    --      2.7083                 1.9297                 0.9629

                      7                      8                      9
                      A                      A                      A
 Frequencies --    237.3465               251.3539               267.1120
 Red. masses --      1.1400                 1.1974                 1.1488
 Frc consts  --      0.0378                 0.0446                 0.0483
 IR Inten    --      0.0635                 3.4040                33.3219

                     10                     11                     12
                      A                      A                      A
 Frequencies --    304.5551               317.4157               344.3671
 Red. masses --      2.6996                 1.3498                 1.9930
 Frc consts  --      0.1475                 0.0801                 0.1393
 IR Inten    --      0.9270                19.6289                 9.9684

                     13                     14                     15
                      A                      A                      A
 Frequencies --    379.6146               398.4453               502.1924
 Red. masses --      2.3942                 3.3284                 2.8787
 Frc consts  --      0.2033                 0.3113                 0.4278
 IR Inten    --     11.0579                13.3273                11.7612

                     16                     17                     18
                      A                      A                      A
 Frequencies --    529.9539               569.8911               751.1847
 Red. masses --      3.3296                 3.0697                 1.1328
 Frc consts  --      0.5510                 0.5874                 0.3766
 IR Inten    --      0.3095                 6.3655                 3.2059

                     19                     20                     21
                      A                      A                      A
 Frequencies --    786.9925               856.6262               875.1730
 Red. masses --      3.2091                 1.3923                 1.3288
 Frc consts  --      1.1710                 0.6019                 0.5996
 IR Inten    --     58.4338                50.1071                49.3391

                     22                     23                     24
                      A                      A                      A
 Frequencies --    890.9271               925.3833               945.5809
 Red. masses --      1.9707                 2.9048                 1.9646
 Frc consts  --      0.9216                 1.4656                 1.0350
 IR Inten    --     13.0143                36.2901                80.8958

                     25                     26                     27
                      A                      A                      A
 Frequencies --   1011.6785              1035.6836              1049.7205
 Red. masses --      1.8688                 2.0796                 2.3346
 Frc consts  --      1.1269                 1.3143                 1.5157
 IR Inten    --     20.5797                 6.9639                 1.0773

                     28                     29                     30
                      A                      A                      A
 Frequencies --   1088.0214              1126.6681              1139.2191
 Red. masses --      2.8320                 2.0990                 1.3469
 Frc consts  --      1.9753                 1.5699                 1.0299
 IR Inten    --     21.5016                 0.3259                 7.6914

                     31                     32                     33
                      A                      A                      A
 Frequencies --   1166.7259              1180.5209              1216.4928
 Red. masses --      1.7886                 1.5200                 3.1808
 Frc consts  --      1.4345                 1.2481                 2.7734
 IR Inten    --     36.9387                15.2551                33.8775

                     34                     35                     36
                      A                      A                      A
 Frequencies --   1240.9280              1256.9795              1293.9630
 Red. masses --      1.5577                 2.3258                 1.4288
 Frc consts  --      1.4133                 2.1651                 1.4095
 IR Inten    --      8.4478                 2.6184                 9.9582

                     37                     38                     39
                      A                      A                      A
 Frequencies --   1324.5647              1333.8003              1348.8129
 Red. masses --      1.3247                 1.2178                 1.1947
 Frc consts  --      1.3694                 1.2765                 1.2805
 IR Inten    --      0.7753                 4.3252                 2.2738

                     40                     41                     42
                      A                      A                      A
 Frequencies --   1361.1020              1399.0354              1411.5872
 Red. masses --      1.3202                 1.3718                 1.2274
 Frc consts  --      1.4410                 1.5820                 1.4409
 IR Inten    --      7.0659                 8.1783                 3.2161

                     43                     44                     45
                      A                      A                      A
 Frequencies --   1437.5026              1452.9004              1479.5929
 Red. masses --      1.1935                 1.2679                 1.0916
 Frc consts  --      1.4531                 1.5769                 1.4080
 IR Inten    --      4.8651                13.8833                 9.1275

                     46                     47                     48
                      A                      A                      A
 Frequencies --   1483.4292              1496.3479              1500.1558
 Red. masses --      1.0811                 1.0441                 1.0405
 Frc consts  --      1.4017                 1.3774                 1.3797
 IR Inten    --      5.8445                 1.0281                 4.4237

                     49                     50                     51
                      A                      A                      A
 Frequencies --   1505.2219              1513.6550              1520.1196
 Red. masses --      1.0487                 1.0871                 1.0866
 Frc consts  --      1.3999                 1.4675                 1.4794
 IR Inten    --      1.6348                 3.6612                 0.4453

                     52                     53                     54
                      A                      A                      A
 Frequencies --   1641.1302              1675.3021              2911.0664
 Red. masses --      1.0978                 1.0798                 1.0699
 Frc consts  --      1.7421                 1.7855                 5.3422
 IR Inten    --     29.6302                13.0649                77.4571

                     55                     56                     57
                      A                      A                      A
 Frequencies --   2950.0071              2963.4238              3014.7199
 Red. masses --      1.0669                 1.0588                 1.0887
 Frc consts  --      5.4706                 5.4782                 5.8296
 IR Inten    --     22.6093                71.9878                48.0173

                     58                     59                     60
                      A                      A                      A
 Frequencies --   3023.9953              3033.6791              3040.7333
 Red. masses --      1.0371                 1.0718                 1.0850
 Frc consts  --      5.5879                 5.8118                 5.9104
 IR Inten    --     26.7709                31.2961                23.1705

                     61                     62                     63
                      A                      A                      A
 Frequencies --   3079.3309              3081.5551              3100.0773
 Red. masses --      1.0975                 1.0753                 1.1005
 Frc consts  --      6.1317                 6.0160                 6.2316
 IR Inten    --     18.8940                28.9331                35.7744

                     64                     65                     66
                      A                      A                      A
 Frequencies --   3113.9993              3133.0168              3343.3095
 Red. masses --      1.0971                 1.1028                 1.0583
 Frc consts  --      6.2679                 6.3777                 6.9698
 IR Inten    --     28.8276                19.4789                21.0545

                     67                     68                     69
                      A                      A                      A
 Frequencies --   3491.4353              3531.3367              3578.3394
 Red. masses --      1.0489                 1.0805                 1.0928
 Frc consts  --      7.5338                 7.9389                 8.2447
 IR Inten    --      0.3289                 0.8876                 0.6011

 - Thermochemistry -
 -------------------
 Temperature   298.150 Kelvin.  Pressure   1.00000 Atm.
 Atom     1 has atomic number  6 and mass  12.00000

 Molecular mass:   132.13750 amu.
 Principal axes and moments of inertia in atomic units:
                           1         2         3
     Eigenvalues --  1027.588501619.317402198.69149
           X            0.99940  -0.03263   0.01175
           Y            0.03250   0.99942   0.01045
           Z           -0.01208  -0.01006   0.99988
 This molecule is an asymmetric top.
 Rotational symmetry number  1.
 Warning -- assumption of classical behavior for rotation
           may cause significant error
 Rotational temperatures (Kelvin)      0.08429     0.05349     0.03939
 Rotational constants (GHZ):           1.75629     1.11451     0.82083
 Zero-point vibrational energy     597704.1 (Joules/Mol)
                                  142.85472 (Kcal/Mol)
 Warning -- explicit consideration of  17 degrees of freedom as
           vibrations may cause significant error
 Vibrational temperatures:     62.29   115.06   135.09   160.59   228.52
          (Kelvin)            324.78   341.49   361.64   384.31   438.19
                              456.69   495.47   546.18   573.27   722.54
                              762.49   819.95  1080.79  1132.31  1232.49
                             1259.18  1281.85  1331.42  1360.48  1455.58
                             1490.12  1510.31  1565.42  1621.02  1639.08
                             1678.66  1698.51  1750.26  1785.42  1808.51
                             1861.72  1905.75  1919.04  1940.64  1958.32
                             2012.90  2030.96  2068.25  2090.40  2128.80
                             2134.32  2152.91  2158.39  2165.68  2177.81
                             2187.11  2361.22  2410.39  4188.38  4244.40
                             4263.71  4337.51  4350.85  4364.79  4374.94
                             4430.47  4433.67  4460.32  4480.35  4507.71
                             4810.28  5023.40  5080.81  5148.43

 Zero-point correction=                           0.227653 (Hartree/Particle)
 Thermal correction to Energy=                    0.239406
 Thermal correction to Enthalpy=                  0.240351
 Thermal correction to Gibbs Free Energy=         0.190265
 Sum of electronic and zero-point Energies=           -418.894655
 Sum of electronic and thermal Energies=              -418.882902
 Sum of electronic and thermal Enthalpies=            -418.881958
 Sum of electronic and thermal Free Energies=         -418.932043

                     E (Thermal)             CV                S
                      KCal/Mol        Cal/Mol-Kelvin    Cal/Mol-Kelvin
 Total                  150.230             42.583            105.414
 Electronic               0.000              0.000              0.000
 Translational            0.889              2.981             40.549
 Rotational               0.889              2.981             29.682
 Vibrational            148.452             36.621             35.183
 Vibration     1          0.595              1.980              5.102
 Vibration     2          0.600              1.963              3.892
 Vibration     3          0.603              1.954              3.577
 Vibration     4          0.607              1.940              3.241
 Vibration     5          0.621              1.893              2.564
 Vibration     6          0.650              1.802              1.913
 Vibration     7          0.656              1.784              1.823
 Vibration     8          0.663              1.760              1.721
 Vibration     9          0.672              1.733              1.615
 Vibration    10          0.695              1.665              1.392
 Vibration    11          0.704              1.640              1.323
 Vibration    12          0.723              1.587              1.192
 Vibration    13          0.750              1.514              1.041
 Vibration    14          0.765              1.473              0.968
 Vibration    15          0.858              1.245              0.653
 Vibration    16          0.885              1.184              0.587
 Vibration    17          0.926              1.096              0.504

                           ! Non-Optimized Parameters !
 Normal termination of Gaussian 16 at Tue Jun  1 07:33:49 2021.
