 Gaussian 16, Revision A.03,
 Gaussian 16:  ES64L-G16RevA.03 25-Dec-2016

 -----------------------------
 # opt freq b3lyp/6-31g(2df,p)
 -----------------------------

 -------------------
 Title Card Required
 -------------------
 Symbolic Z-matrix:
 Charge =  0 Multiplicity = 1

 SCF Done:  E(RB3LYP) =  -382.466421907     A.U. after   14 cycles
 SCF Done:  E(RB3LYP) =  -382.473149391     A.U. after   12 cycles
 SCF Done:  E(RB3LYP) =  -382.477831557     A.U. after   12 cycles
 SCF Done:  E(RB3LYP) =  -382.484966490     A.U. after   14 cycles
 SCF Done:  E(RB3LYP) =  -382.486593370     A.U. after   12 cycles
 SCF Done:  E(RB3LYP) =  -382.485881091     A.U. after   13 cycles
 SCF Done:  E(RB3LYP) =  -382.487566611     A.U. after    9 cycles
 SCF Done:  E(RB3LYP) =  -382.487593419     A.U. after    9 cycles
 SCF Done:  E(RB3LYP) =  -382.487610743     A.U. after    9 cycles
 SCF Done:  E(RB3LYP) =  -382.487618301     A.U. after    8 cycles
 SCF Done:  E(RB3LYP) =  -382.488301303     A.U. after   11 cycles
 SCF Done:  E(RB3LYP) =  -382.488845376     A.U. after   11 cycles
 SCF Done:  E(RB3LYP) =  -382.489317050     A.U. after   11 cycles
 SCF Done:  E(RB3LYP) =  -382.489666355     A.U. after   11 cycles
 SCF Done:  E(RB3LYP) =  -382.489687831     A.U. after    9 cycles
 SCF Done:  E(RB3LYP) =  -382.489694336     A.U. after    9 cycles
 SCF Done:  E(RB3LYP) =  -382.489695421     A.U. after    8 cycles
 SCF Done:  E(RB3LYP) =  -382.489695623     A.U. after    7 cycles
 SCF Done:  E(RB3LYP) =  -382.489695704     A.U. after    7 cycles
 Optimization completed.
    -- Stationary point found.
 Normal termination of Gaussian 16 at Tue Jun  1 20:39:41 2021.

 ----------------------------------------------------------------------
 #N Geom=AllCheck Guess=TCheck SCRF=Check GenChk RB3LYP/6-31G(2df,p) Fr
 eq
 ----------------------------------------------------------------------

 Structure from the checkpoint file:  "CCCNNpCpCdO.chk"
 -------------------
 Title Card Required
 -------------------
 Charge =  0 Multiplicity = 1

                         Standard orientation:
 ---------------------------------------------------------------------
 Center     Atomic      Atomic             Coordinates (Angstroms)
 Number     Number       Type             X           Y           Z
 ---------------------------------------------------------------------
      1          6           0        3.683441   -0.059616   -0.489312
      2          6           0        2.475414   -0.332896    0.410097
      3          6           0        1.159043    0.111458   -0.225977
      4          7           0        0.039145   -0.199392    0.670622
      5          7           0       -1.218947    0.152018    0.165409
      6          6           0       -1.590912    1.542416   -0.028030
      7          6           0       -2.117827   -0.861570   -0.029749
      8          8           0       -3.253159   -0.718274   -0.429872
      9          1           0        4.611698   -0.384232   -0.010525
     10          1           0        3.780620    1.008021   -0.714463
     11          1           0        3.596315   -0.592753   -1.442118
     12          1           0        2.607561    0.188540    1.368327
     13          1           0        2.408857   -1.400644    0.646665
     14          1           0        0.986636   -0.433970   -1.160687
     15          1           0        1.218808    1.182129   -0.483820
     16          1           0        0.174281    0.261951    1.568635
     17          1           0       -1.490960    2.104480    0.909602
     18          1           0       -2.633562    1.554241   -0.347930
     19          1           0       -0.973538    2.024426   -0.793143
     20          1           0       -1.657783   -1.833131    0.224032
 ---------------------------------------------------------------------

 SCF Done:  E(RB3LYP) =  -382.489695704     A.U. after    1 cycles

 The electronic state is 1-A.
 Alpha  occ. eigenvalues --  -19.10029 -14.37907 -14.36281 -10.26568 -10.21736
 Alpha  occ. eigenvalues --  -10.21635 -10.19357 -10.18466  -1.03530  -0.98816
 Alpha  occ. eigenvalues --   -0.84375  -0.77482  -0.71855  -0.67384  -0.60367
 Alpha  occ. eigenvalues --   -0.56774  -0.53435  -0.50129  -0.47595  -0.46285
 Alpha  occ. eigenvalues --   -0.43556  -0.42023  -0.40691  -0.40377  -0.39162
 Alpha  occ. eigenvalues --   -0.37595  -0.36537  -0.35102  -0.34372  -0.26093
 Alpha  occ. eigenvalues --   -0.24785  -0.24288
 Alpha virt. eigenvalues --    0.03363   0.07098   0.08887   0.11217   0.12443
 Alpha virt. eigenvalues --    0.13062   0.14383   0.15022   0.15456   0.17287
 Alpha virt. eigenvalues --    0.17534   0.17910   0.18491   0.19877   0.22176

 Mulliken charges:
               1
     1  C   -0.382842
     2  C   -0.181589
     3  C   -0.098313
     4  N   -0.295125
     5  N   -0.029604
     6  C   -0.346790
     7  C    0.180820
     8  O   -0.344457
     9  H    0.119589
    10  H    0.117689
    11  H    0.121250
    12  H    0.094344
    13  H    0.114899
    14  H    0.115463
    15  H    0.087736
    16  H    0.225417
    17  H    0.117720
    18  H    0.172736
    19  H    0.129442
    20  H    0.081617
 Sum of Mulliken charges =  -0.00000

 Dipole moment (field-independent basis, Debye):
    X=              3.8466    Y=              1.8274    Z=              1.0434  Tot=              4.3846
 Quadrupole moment (field-independent basis, Debye-Ang):
   XX=            -62.0335   YY=            -48.1662   ZZ=            -48.4129
   XY=             -4.0481   XZ=             -2.4979   YZ=              0.5659

  Exact polarizability:  93.897   2.189  70.465   3.522   0.123  59.485
 Approx polarizability: 119.353   5.824 100.770   9.607   1.120  89.804

                      1                      2                      3
                      A                      A                      A
 Frequencies --     57.0706                68.5117                96.1318
 Red. masses --      4.5115                 1.7101                 3.0778
 Frc consts  --      0.0087                 0.0047                 0.0168
 IR Inten    --      1.6433                 0.3661                 0.2906

                      4                      5                      6
                      A                      A                      A
 Frequencies --    142.4804               157.7563               235.7828
 Red. masses --      2.0204                 1.2893                 1.4361
 Frc consts  --      0.0242                 0.0189                 0.0470
 IR Inten    --      0.5436                 0.1352                 0.4779

                      7                      8                      9
                      A                      A                      A
 Frequencies --    241.1155               293.5953               324.6435
 Red. masses --      1.7153                 3.4667                 2.4126
 Frc consts  --      0.0588                 0.1761                 0.1498
 IR Inten    --      0.9754                 4.8285                13.5482

                     10                     11                     12
                      A                      A                      A
 Frequencies --    371.7907               398.2141               470.8970
 Red. masses --      4.8783                 2.6984                 3.4521
 Frc consts  --      0.3973                 0.2521                 0.4510
 IR Inten    --      7.9174                 4.2307                 3.9964

                     13                     14                     15
                      A                      A                      A
 Frequencies --    696.8977               761.6055               809.8069
 Red. masses --      4.6525                 1.0805                 1.5725
 Frc consts  --      1.3313                 0.3692                 0.6076
 IR Inten    --     14.3902                 3.3654                57.9761

                     16                     17                     18
                      A                      A                      A
 Frequencies --    873.4477               905.7976               929.0235
 Red. masses --      2.8498                 1.3190                 1.5218
 Frc consts  --      1.2810                 0.6376                 0.7739
 IR Inten    --     15.8182                 6.0223                16.0747

                     19                     20                     21
                      A                      A                      A
 Frequencies --   1032.2686              1045.9216              1063.9790
 Red. masses --      2.6843                 1.6367                 2.2184
 Frc consts  --      1.6853                 1.0549                 1.4797
 IR Inten    --     12.5715                 0.5276                21.2905

                     22                     23                     24
                      A                      A                      A
 Frequencies --   1104.8118              1145.6017              1151.6327
 Red. masses --      1.9607                 2.0752                 1.3233
 Frc consts  --      1.4100                 1.6047                 1.0340
 IR Inten    --     37.1089                 1.5467                 2.7033

                     25                     26                     27
                      A                      A                      A
 Frequencies --   1189.0063              1254.0160              1271.5170
 Red. masses --      1.9431                 2.5982                 1.6557
 Frc consts  --      1.6185                 2.4073                 1.5772
 IR Inten    --      4.6637                23.2447                24.1435

                     28                     29                     30
                      A                      A                      A
 Frequencies --   1315.3827              1332.3802              1380.4093
 Red. masses --      1.1633                 1.2291                 2.0087
 Frc consts  --      1.1859                 1.2855                 2.2551
 IR Inten    --      1.8294                 6.8129                72.9533

                     31                     32                     33
                      A                      A                      A
 Frequencies --   1399.8690              1412.4705              1415.1186
 Red. masses --      1.4592                 1.5888                 1.2233
 Frc consts  --      1.6847                 1.8676                 1.4433
 IR Inten    --      1.9233                 3.9440                 1.0662

                     34                     35                     36
                      A                      A                      A
 Frequencies --   1429.6003              1490.4287              1494.0960
 Red. masses --      1.1740                 1.0577                 1.0505
 Frc consts  --      1.4137                 1.3843                 1.3817
 IR Inten    --     10.6722                 1.4172                 6.9274

                     37                     38                     39
                      A                      A                      A
 Frequencies --   1497.9977              1501.0284              1505.2682
 Red. masses --      1.0752                 1.0428                 1.0739
 Frc consts  --      1.4216                 1.3843                 1.4336
 IR Inten    --      7.5042                 4.8619                 1.6381

                     40                     41                     42
                      A                      A                      A
 Frequencies --   1521.8376              1550.4814              1795.8549
 Red. masses --      1.0972                 1.2951                 8.6356
 Frc consts  --      1.4972                 1.8343                16.4091
 IR Inten    --      3.2321                10.5705               384.1668

                     43                     44                     45
                      A                      A                      A
 Frequencies --   2962.6909              2984.0479              3013.9389
 Red. masses --      1.0700                 1.0863                 1.0666
 Frc consts  --      5.5334                 5.6991                 5.7086
 IR Inten    --     37.9152                63.1344                22.1964

                     46                     47                     48
                      A                      A                      A
 Frequencies --   3016.7287              3033.7408              3056.7586
 Red. masses --      1.0412                 1.0361                 1.0861
 Frc consts  --      5.5827                 5.6184                 5.9792
 IR Inten    --     39.1284                26.1166                13.2788

                     49                     50                     51
                      A                      A                      A
 Frequencies --   3071.0494              3076.9726              3101.4312
 Red. masses --      1.0978                 1.0985                 1.1022
 Frc consts  --      6.1002                 6.1277                 6.2462
 IR Inten    --     18.2175                29.4844                50.1871

                     52                     53                     54
                      A                      A                      A
 Frequencies --   3109.3210              3151.3131              3456.6752
 Red. masses --      1.1008                 1.0974                 1.0737
 Frc consts  --      6.2705                 6.4211                 7.5589
 IR Inten    --     30.8055                 0.8659                 2.7075

 - Thermochemistry -
 -------------------
 Temperature   298.150 Kelvin.  Pressure   1.00000 Atm.
 Atom     1 has atomic number  6 and mass  12.00000

 Molecular mass:   116.09496 amu.
 Principal axes and moments of inertia in atomic units:
                           1         2         3
     Eigenvalues --   333.074992243.839762393.02288
           X            0.99987  -0.01437  -0.00721
           Y            0.01424   0.99974  -0.01800
           Z            0.00747   0.01789   0.99981
 This molecule is an asymmetric top.
 Rotational symmetry number  1.
 Rotational temperatures (Kelvin)      0.26004     0.03860     0.03619
 Rotational constants (GHZ):           5.41842     0.80431     0.75417
 Zero-point vibrational energy     461580.4 (Joules/Mol)
                                  110.32036 (Kcal/Mol)
 Warning -- explicit consideration of  12 degrees of freedom as
           vibrations may cause significant error
 Vibrational temperatures:     82.11    98.57   138.31   205.00   226.98
          (Kelvin)            339.24   346.91   422.42   467.09   534.92
                              572.94   677.52  1002.68  1095.78  1165.13
                             1256.70  1303.24  1336.66  1485.20  1504.85
                             1530.83  1589.58  1648.27  1656.94  1710.71
                             1804.25  1829.43  1892.54  1917.00  1986.10
                             2014.10  2032.23  2036.04  2056.88  2144.39
                             2149.67  2155.28  2159.65  2165.75  2189.58
                             2230.80  2583.83  4262.65  4293.38  4336.39
                             4340.40  4364.88  4397.99  4418.56  4427.08
                             4462.27  4473.62  4534.04  4973.38

 Zero-point correction=                           0.175807 (Hartree/Particle)
 Thermal correction to Energy=                    0.185737
 Thermal correction to Enthalpy=                  0.186682
 Thermal correction to Gibbs Free Energy=         0.140215
 Sum of electronic and zero-point Energies=           -382.313889
 Sum of electronic and thermal Energies=              -382.303958
 Sum of electronic and thermal Enthalpies=            -382.303014
 Sum of electronic and thermal Free Energies=         -382.349481

                     E (Thermal)             CV                S
                      KCal/Mol        Cal/Mol-Kelvin    Cal/Mol-Kelvin
 Total                  116.552             34.150             97.798
 Electronic               0.000              0.000              0.000
 Translational            0.889              2.981             40.163
 Rotational               0.889              2.981             28.971
 Vibrational            114.775             28.189             28.664
 Vibration     1          0.596              1.975              4.556
 Vibration     2          0.598              1.969              4.196
 Vibration     3          0.603              1.952              3.531
 Vibration     4          0.616              1.911              2.770
 Vibration     5          0.621              1.894              2.577
 Vibration     6          0.655              1.786              1.834
 Vibration     7          0.658              1.777              1.795
 Vibration     8          0.688              1.686              1.453
 Vibration     9          0.709              1.626              1.287
 Vibration    10          0.743              1.530              1.072
 Vibration    11          0.764              1.474              0.969
 Vibration    12          0.828              1.315              0.735

 Optimization completed.
    -- Stationary point found.
 Normal termination of Gaussian 16 at Tue Jun  1 21:01:39 2021.
