 Gaussian 16, Revision A.03,
 Gaussian 16:  ES64L-G16RevA.03 25-Dec-2016

 -----------------------------
 # opt freq b3lyp/6-31g(2df,p)
 -----------------------------

 -------------------
 Title Card Required
 -------------------
 Symbolic Z-matrix:
 Charge =  0 Multiplicity = 1

 SCF Done:  E(RB3LYP) =  -464.514632818     A.U. after   13 cycles
 SCF Done:  E(RB3LYP) =  -464.520762468     A.U. after   12 cycles
 SCF Done:  E(RB3LYP) =  -464.521714032     A.U. after   11 cycles
 SCF Done:  E(RB3LYP) =  -464.522048086     A.U. after   11 cycles
 SCF Done:  E(RB3LYP) =  -464.522581352     A.U. after   12 cycles
 SCF Done:  E(RB3LYP) =  -464.522666985     A.U. after   12 cycles
 SCF Done:  E(RB3LYP) =  -464.523304862     A.U. after   11 cycles
 SCF Done:  E(RB3LYP) =  -464.523987271     A.U. after   11 cycles
 SCF Done:  E(RB3LYP) =  -464.524217399     A.U. after   11 cycles
 SCF Done:  E(RB3LYP) =  -464.524251940     A.U. after   10 cycles
 SCF Done:  E(RB3LYP) =  -464.524271289     A.U. after    8 cycles
 SCF Done:  E(RB3LYP) =  -464.524273493     A.U. after    8 cycles
 SCF Done:  E(RB3LYP) =  -464.524273833     A.U. after    7 cycles
 SCF Done:  E(RB3LYP) =  -464.524273892     A.U. after    6 cycles
 Optimization completed.
    -- Stationary point found.
 Normal termination of Gaussian 16 at Tue Jun  1 01:51:30 2021.

 ----------------------------------------------------------------------
 #N Geom=AllCheck Guess=TCheck SCRF=Check GenChk RB3LYP/6-31G(2df,p) Fr
 eq
 ----------------------------------------------------------------------

 Structure from the checkpoint file:  "CCCNCCCpCpCCdN.chk"
 -------------------
 Title Card Required
 -------------------
 Charge =  0 Multiplicity = 1

                         Standard orientation:
 ---------------------------------------------------------------------
 Center     Atomic      Atomic             Coordinates (Angstroms)
 Number     Number       Type             X           Y           Z
 ---------------------------------------------------------------------
      1          6           0       -5.709541    0.164572   -0.127655
      2          6           0       -4.394572   -0.515817    0.260139
      3          6           0       -3.163380    0.265261   -0.198523
      4          7           0       -1.930427   -0.390812    0.220988
      5          6           0       -0.720998    0.290871   -0.222814
      6          6           0        0.528234   -0.460249    0.242781
      7          6           0        1.859718    0.142822   -0.237683
      8          6           0        2.088849    1.565145    0.294504
      9          6           0        3.033370   -0.786143    0.151816
     10          6           0        4.338177   -0.393323   -0.490894
     11          7           0        5.438999   -0.094397    0.066448
     12          1           0       -6.572206   -0.418812    0.207772
     13          1           0       -5.791536    0.284896   -1.213590
     14          1           0       -5.787565    1.160853    0.321530
     15          1           0       -4.362389   -1.524463   -0.175207
     16          1           0       -4.339380   -0.648365    1.346649
     17          1           0       -3.179702    1.268224    0.250204
     18          1           0       -3.213869    0.420741   -1.294813
     19          1           0       -1.925012   -1.343356   -0.134097
     20          1           0       -0.736594    1.300375    0.205942
     21          1           0       -0.681650    0.424667   -1.322852
     22          1           0        0.463779   -1.496859   -0.117951
     23          1           0        0.517771   -0.516710    1.338797
     24          1           0        1.830474    0.189712   -1.336633
     25          1           0        2.056723    1.578321    1.390846
     26          1           0        1.328972    2.261870   -0.069343
     27          1           0        3.065580    1.950664   -0.012911
     28          1           0        2.791557   -1.809770   -0.168065
     29          1           0        3.150817   -0.809128    1.243328
     30          1           0        4.318426   -0.364383   -1.588239
     31          1           0        5.346658   -0.150839    1.086556
 ---------------------------------------------------------------------

 SCF Done:  E(RB3LYP) =  -464.524273892     A.U. after    1 cycles

 The electronic state is 1-A.
 Alpha  occ. eigenvalues --  -14.31173 -14.30921 -10.22530 -10.20305 -10.20047
 Alpha  occ. eigenvalues --  -10.19768 -10.19173 -10.18208 -10.17922 -10.17591
 Alpha  occ. eigenvalues --  -10.17432  -0.90135  -0.89738  -0.81537  -0.77416
 Alpha  occ. eigenvalues --   -0.72691  -0.69994  -0.65985  -0.61807  -0.58984
 Alpha  occ. eigenvalues --   -0.58060  -0.56521  -0.49205  -0.47247  -0.46362
 Alpha  occ. eigenvalues --   -0.45694  -0.44955  -0.43633  -0.42648  -0.41224
 Alpha  occ. eigenvalues --   -0.39606  -0.38549  -0.37923  -0.36836  -0.36071
 Alpha  occ. eigenvalues --   -0.35539  -0.33967  -0.33385  -0.33092  -0.32604
 Alpha  occ. eigenvalues --   -0.32226  -0.30003  -0.25395  -0.22017
 Alpha virt. eigenvalues --    0.00345   0.08104   0.08964   0.09576   0.10123
 Alpha virt. eigenvalues --    0.10897   0.12303   0.13661   0.14345   0.14562
 Alpha virt. eigenvalues --    0.15230   0.15638   0.16258   0.16922   0.17366

 Mulliken charges:
               1
     1  C   -0.378268
     2  C   -0.181087
     3  C   -0.098695
     4  N   -0.297732
     5  C   -0.135243
     6  C   -0.199443
     7  C    0.023247
     8  C   -0.394532
     9  C   -0.250338
    10  C    0.066189
    11  N   -0.392094
    12  H    0.113679
    13  H    0.114473
    14  H    0.115795
    15  H    0.088851
    16  H    0.107619
    17  H    0.098438
    18  H    0.070276
    19  H    0.206366
    20  H    0.104166
    21  H    0.071012
    22  H    0.083568
    23  H    0.105340
    24  H    0.076597
    25  H    0.114059
    26  H    0.120642
    27  H    0.126807
    28  H    0.109075
    29  H    0.095725
    30  H    0.101929
    31  H    0.213578
 Sum of Mulliken charges =  -0.00000

 Dipole moment (field-independent basis, Debye):
    X=             -2.4655    Y=             -0.6917    Z=             -0.1900  Tot=              2.5677
 Quadrupole moment (field-independent basis, Debye-Ang):
   XX=            -92.0362   YY=            -69.8014   ZZ=            -70.0007
   XY=             -1.6189   XZ=              4.9129   YZ=              1.2696

  Exact polarizability: 151.694   1.964  96.998   3.677   0.284  97.683
 Approx polarizability: 170.431   5.416 145.686   7.597   1.862 154.656

                      1                      2                      3
                      A                      A                      A
 Frequencies --     32.1747                47.6953                50.9098
 Red. masses --      4.0418                 1.8194                 3.3398
 Frc consts  --      0.0025                 0.0024                 0.0051
 IR Inten    --      0.6542                 0.2949                 0.9485

                      4                      5                      6
                      A                      A                      A
 Frequencies --     74.4361                81.8075               111.2743
 Red. masses --      3.4820                 2.7769                 1.9653
 Frc consts  --      0.0114                 0.0109                 0.0143
 IR Inten    --      1.9282                 0.1732                 1.2704

                      7                      8                      9
                      A                      A                      A
 Frequencies --    135.7706               160.1470               170.1628
 Red. masses --      2.0980                 2.1796                 2.8587
 Frc consts  --      0.0228                 0.0329                 0.0488
 IR Inten    --      1.4025                 0.5260                 2.8111

                     10                     11                     12
                      A                      A                      A
 Frequencies --    219.9035               238.9599               243.7114
 Red. masses --      3.0820                 1.1318                 1.2182
 Frc consts  --      0.0878                 0.0381                 0.0426
 IR Inten    --      0.0955                 0.1251                 0.2036

                     13                     14                     15
                      A                      A                      A
 Frequencies --    259.3861               321.3290               402.3455
 Red. masses --      2.5874                 2.8560                 2.1113
 Frc consts  --      0.1026                 0.1737                 0.2014
 IR Inten    --      2.4677                 0.2921                 0.9644

                     16                     17                     18
                      A                      A                      A
 Frequencies --    423.3625               445.7713               513.6664
 Red. masses --      2.5453                 3.0226                 2.5247
 Frc consts  --      0.2688                 0.3539                 0.3925
 IR Inten    --      0.0016                 0.4859                 7.6476

                     19                     20                     21
                      A                      A                      A
 Frequencies --    533.3946               736.0159               759.9645
 Red. masses --      2.6862                 1.7832                 1.0840
 Frc consts  --      0.4503                 0.5691                 0.3688
 IR Inten    --      2.9966                11.3317                 1.2334

                     22                     23                     24
                      A                      A                      A
 Frequencies --    778.6124               793.2024               872.1940
 Red. masses --      1.1761                 1.2832                 2.2193
 Frc consts  --      0.4201                 0.4757                 0.9947
 IR Inten    --     44.1766                21.1742                 0.9095

                     25                     26                     27
                      A                      A                      A
 Frequencies --    897.9572               909.1331               911.5967
 Red. masses --      1.2400                 1.6678                 1.4949
 Frc consts  --      0.5891                 0.8122                 0.7319
 IR Inten    --      4.0181                 1.2460                 3.1458

                     28                     29                     30
                      A                      A                      A
 Frequencies --    947.7717               973.9922              1007.7517
 Red. masses --      2.0010                 1.6109                 2.2653
 Frc consts  --      1.0590                 0.9004                 1.3554
 IR Inten    --      2.4081                 4.0913                 1.5873

                     31                     32                     33
                      A                      A                      A
 Frequencies --   1032.8786              1051.2095              1066.3321
 Red. masses --      2.5963                 2.6551                 2.5216
 Frc consts  --      1.6320                 1.7286                 1.6893
 IR Inten    --      0.5765                 6.9898                 2.3169

                     34                     35                     36
                      A                      A                      A
 Frequencies --   1106.6496              1110.6320              1133.7032
 Red. masses --      2.0761                 1.4782                 1.4810
 Frc consts  --      1.4980                 1.0743                 1.1215
 IR Inten    --     10.3329                27.3902                 2.8327

                     37                     38                     39
                      A                      A                      A
 Frequencies --   1151.2533              1153.0971              1157.7305
 Red. masses --      1.9858                 1.2768                 3.0462
 Frc consts  --      1.5507                 1.0003                 2.4056
 IR Inten    --      6.6395                57.6292                43.4969

                     40                     41                     42
                      A                      A                      A
 Frequencies --   1186.2537              1217.3301              1245.0778
 Red. masses --      1.6091                 1.6882                 1.4158
 Frc consts  --      1.3341                 1.4740                 1.2931
 IR Inten    --      1.9871                 4.5015                13.5229

                     43                     44                     45
                      A                      A                      A
 Frequencies --   1265.3375              1286.3266              1296.1078
 Red. masses --      1.2537                 1.3281                 1.3022
 Frc consts  --      1.1827                 1.2947                 1.2889
 IR Inten    --      1.1505                33.0834                50.8597

                     46                     47                     48
                      A                      A                      A
 Frequencies --   1312.8183              1321.8916              1325.6722
 Red. masses --      1.2395                 1.1638                 1.0990
 Frc consts  --      1.2587                 1.1982                 1.1379
 IR Inten    --      3.7240                 7.3463                 1.0404

                     49                     50                     51
                      A                      A                      A
 Frequencies --   1339.4921              1370.9207              1375.0136
 Red. masses --      1.3635                 1.3921                 1.3806
 Frc consts  --      1.4414                 1.5415                 1.5379
 IR Inten    --      7.2462                 1.4948                 4.7186

                     52                     53                     54
                      A                      A                      A
 Frequencies --   1393.8155              1412.1619              1415.9878
 Red. masses --      1.4624                 1.2545                 1.2486
 Frc consts  --      1.6739                 1.4740                 1.4750
 IR Inten    --     12.9168                 0.4735                 6.5306

                     55                     56                     57
                      A                      A                      A
 Frequencies --   1425.7267              1431.5087              1467.4746
 Red. masses --      1.2497                 1.4751                 1.0991
 Frc consts  --      1.4966                 1.7810                 1.3946
 IR Inten    --     23.0655                 2.1282                 3.3573

                     58                     59                     60
                      A                      A                      A
 Frequencies --   1485.3375              1489.8541              1492.4014
 Red. masses --      1.0836                 1.0755                 1.1788
 Frc consts  --      1.4086                 1.4065                 1.5469
 IR Inten    --      0.6462                 0.2078                26.2643

                     61                     62                     63
                      A                      A                      A
 Frequencies --   1500.0335              1500.5422              1504.4377
 Red. masses --      1.0550                 1.0510                 1.0693
 Frc consts  --      1.3986                 1.3943                 1.4259
 IR Inten    --      1.7888                 4.3836                 2.3143

                     64                     65                     66
                      A                      A                      A
 Frequencies --   1507.2610              1515.4082              1527.4886
 Red. masses --      1.0629                 1.0882                 1.0900
 Frc consts  --      1.4227                 1.4724                 1.4984
 IR Inten    --     15.1663                 7.5501                 0.5154

                     67                     68                     69
                      A                      A                      A
 Frequencies --   1728.6433              2894.3689              2902.4818
 Red. masses --      8.3344                 1.0733                 1.0730
 Frc consts  --     14.6736                 5.2975                 5.3261
 IR Inten    --     70.3014                32.5424               118.2357

                     70                     71                     72
                      A                      A                      A
 Frequencies --   2992.0447              3000.3238              3005.7707
 Red. masses --      1.0814                 1.0625                 1.0608
 Frc consts  --      5.7037                 5.6351                 5.6466
 IR Inten    --     11.7722                 2.7061                41.2432

                     73                     74                     75
                      A                      A                      A
 Frequencies --   3008.5532              3023.3336              3030.2533
 Red. masses --      1.0709                 1.0769                 1.0402
 Frc consts  --      5.7109                 5.7995                 5.6276
 IR Inten    --     11.6730                33.0626                 8.2325

                     76                     77                     78
                      A                      A                      A
 Frequencies --   3030.9899              3038.1919              3041.1527
 Red. masses --      1.0374                 1.0833                 1.0895
 Frc consts  --      5.6153                 5.8914                 5.9366
 IR Inten    --     36.7347                25.8837                 5.6833

                     79                     80                     81
                      A                      A                      A
 Frequencies --   3055.4749              3061.5199              3062.3887
 Red. masses --      1.0969                 1.0979                 1.0963
 Frc consts  --      6.0337                 6.0630                 6.0575
 IR Inten    --      5.6049                93.7217                22.2061

                     82                     83                     84
                      A                      A                      A
 Frequencies --   3097.0337              3097.8273              3104.4690
 Red. masses --      1.1020                 1.0975                 1.1007
 Frc consts  --      6.2276                 6.2055                 6.2501
 IR Inten    --     50.8468                29.6213                35.3841

                     85                     86                     87
                      A                      A                      A
 Frequencies --   3114.4289              3398.4307              3492.0909
 Red. masses --      1.1008                 1.0733                 1.0731
 Frc consts  --      6.2912                 7.3038                 7.7101
 IR Inten    --     29.0051                 5.1324                 0.7742

 - Thermochemistry -
 -------------------
 Temperature   298.150 Kelvin.  Pressure   1.00000 Atm.
 Atom     1 has atomic number  6 and mass  12.00000

 Molecular mass:   156.16265 amu.
 Principal axes and moments of inertia in atomic units:
                           1         2         3
     Eigenvalues --   369.611916906.817167088.18638
           X            0.99999   0.00071   0.00339
           Y           -0.00071   1.00000  -0.00088
           Z           -0.00339   0.00088   0.99999
 This molecule is an asymmetric top.
 Rotational symmetry number  1.
 Rotational temperatures (Kelvin)      0.23434     0.01254     0.01222
 Rotational constants (GHZ):           4.88280     0.26130     0.25461
 Zero-point vibrational energy     746525.6 (Joules/Mol)
                                  178.42391 (Kcal/Mol)
 Warning -- explicit consideration of  19 degrees of freedom as
           vibrations may cause significant error
 Vibrational temperatures:     46.29    68.62    73.25   107.10   117.70
          (Kelvin)            160.10   195.34   230.42   244.83   316.39
                              343.81   350.65   373.20   462.32   578.89
                              609.12   641.37   739.05   767.44  1058.96
                             1093.42  1120.25  1141.24  1254.89  1291.96
                             1308.04  1311.58  1363.63  1401.36  1449.93
                             1486.08  1512.46  1534.21  1592.22  1597.95
                             1631.15  1656.40  1659.05  1665.72  1706.75
                             1751.47  1791.39  1820.54  1850.74  1864.81
                             1888.85  1901.91  1907.35  1927.23  1972.45
                             1978.34  2005.39  2031.79  2037.29  2051.30
                             2059.62  2111.37  2137.07  2143.57  2147.23
                             2158.21  2158.95  2164.55  2168.61  2180.33
                             2197.72  2487.13  4164.35  4176.02  4304.88
                             4316.80  4324.63  4328.64  4349.90  4359.86
                             4360.92  4371.28  4375.54  4396.15  4404.84
                             4406.09  4455.94  4457.08  4466.64  4480.97
                             4889.58  5024.34

 Zero-point correction=                           0.284337 (Hartree/Particle)
 Thermal correction to Energy=                    0.298701
 Thermal correction to Enthalpy=                  0.299645
 Thermal correction to Gibbs Free Energy=         0.241698
 Sum of electronic and zero-point Energies=           -464.239937
 Sum of electronic and thermal Energies=              -464.225573
 Sum of electronic and thermal Enthalpies=            -464.224629
 Sum of electronic and thermal Free Energies=         -464.282576

                     E (Thermal)             CV                S
                      KCal/Mol        Cal/Mol-Kelvin    Cal/Mol-Kelvin
 Total                  187.438             50.518            121.960
 Electronic               0.000              0.000              0.000
 Translational            0.889              2.981             41.047
 Rotational               0.889              2.981             31.271
 Vibrational            185.660             44.556             49.643
 Vibration     1          0.594              1.983              5.691
 Vibration     2          0.595              1.978              4.911
 Vibration     3          0.595              1.977              4.782
 Vibration     4          0.599              1.966              4.032
 Vibration     5          0.600              1.962              3.847
 Vibration     6          0.607              1.940              3.247
 Vibration     7          0.614              1.918              2.863
 Vibration     8          0.622              1.891              2.548
 Vibration     9          0.625              1.879              2.434
 Vibration    10          0.647              1.811              1.960
 Vibration    11          0.657              1.781              1.811
 Vibration    12          0.659              1.773              1.776
 Vibration    13          0.668              1.747              1.666
 Vibration    14          0.707              1.633              1.303
 Vibration    15          0.768              1.465              0.954
 Vibration    16          0.786              1.419              0.881
 Vibration    17          0.805              1.370              0.809
 Vibration    18          0.869              1.220              0.625
 Vibration    19          0.888              1.176              0.580

 Optimization completed.
    -- Stationary point found.
 Normal termination of Gaussian 16 at Tue Jun  1 02:53:34 2021.
