 Gaussian 16, Revision A.03,
 Gaussian 16:  ES64L-G16RevA.03 25-Dec-2016

 -----------------------------
 # opt freq b3lyp/6-31g(2df,p)
 -----------------------------

 -------------------
 Title Card Required
 -------------------
 Symbolic Z-matrix:
 Charge =  0 Multiplicity = 1

 SCF Done:  E(RB3LYP) =  -515.227936794     A.U. after   14 cycles
 SCF Done:  E(RB3LYP) =  -515.235148513     A.U. after   13 cycles
 SCF Done:  E(RB3LYP) =  -515.236432641     A.U. after   13 cycles
 SCF Done:  E(RB3LYP) =  -515.236413777     A.U. after   12 cycles
 SCF Done:  E(RB3LYP) =  -515.235309444     A.U. after   13 cycles
 SCF Done:  E(RB3LYP) =  -515.236657294     A.U. after   12 cycles
 SCF Done:  E(RB3LYP) =  -515.236691054     A.U. after   10 cycles
 SCF Done:  E(RB3LYP) =  -515.236702142     A.U. after   10 cycles
 SCF Done:  E(RB3LYP) =  -515.236716752     A.U. after   11 cycles
 SCF Done:  E(RB3LYP) =  -515.236721179     A.U. after   10 cycles
 SCF Done:  E(RB3LYP) =  -515.236729580     A.U. after   11 cycles
 SCF Done:  E(RB3LYP) =  -515.236740132     A.U. after   11 cycles
 SCF Done:  E(RB3LYP) =  -515.236741388     A.U. after    9 cycles
 SCF Done:  E(RB3LYP) =  -515.236742007     A.U. after    8 cycles
 SCF Done:  E(RB3LYP) =  -515.236742059     A.U. after    6 cycles
 Optimization completed.
    -- Stationary point found.
 Normal termination of Gaussian 16 at Mon May 31 23:58:15 2021.

 ----------------------------------------------------------------------
 #N Geom=AllCheck Guess=TCheck SCRF=Check GenChk RB3LYP/6-31G(2df,p) Fr
 eq
 ----------------------------------------------------------------------

 Structure from the checkpoint file:  "CCCNCNCCpdNpCdO.chk"
 -------------------
 Title Card Required
 -------------------
 Charge =  0 Multiplicity = 1

                         Standard orientation:
 ---------------------------------------------------------------------
 Center     Atomic      Atomic             Coordinates (Angstroms)
 Number     Number       Type             X           Y           Z
 ---------------------------------------------------------------------
      1          6           0       -5.648694   -0.032981   -0.215030
      2          6           0       -4.296207    0.544800    0.208184
      3          6           0       -3.124122   -0.365841   -0.155356
      4          7           0       -1.849542    0.239742    0.223911
      5          6           0       -0.706547   -0.610995   -0.042234
      6          7           0        0.531565    0.139090    0.144701
      7          6           0        1.730877   -0.663397    0.011785
      8          6           0        2.973636    0.210209   -0.085243
      9          7           0        2.979310    1.466678   -0.264883
     10          6           0        4.290048   -0.530004    0.034082
     11          8           0        5.373681   -0.012072    0.022124
     12          1           0       -6.468444    0.635934    0.062663
     13          1           0       -5.835209   -1.002521    0.259861
     14          1           0       -5.694155   -0.181499   -1.299469
     15          1           0       -4.294910    0.715890    1.293789
     16          1           0       -4.135605    1.523148   -0.258393
     17          1           0       -3.108241   -0.525417   -1.241882
     18          1           0       -3.278899   -1.362724    0.301676
     19          1           0       -1.879781    0.461323    1.216240
     20          1           0       -0.754214   -0.925838   -1.093061
     21          1           0       -0.718147   -1.544858    0.566327
     22          1           0        0.521705    0.586439    1.057321
     23          1           0        1.653289   -1.256898   -0.911697
     24          1           0        1.873985   -1.406272    0.820426
     25          1           0        2.005850    1.785962   -0.350963
     26          1           0        4.180049   -1.635406    0.136945
 ---------------------------------------------------------------------

 SCF Done:  E(RB3LYP) =  -515.236742059     A.U. after    1 cycles

 The electronic state is 1-A.
 Alpha  occ. eigenvalues --  -19.14789 -14.33689 -14.32579 -14.32410 -10.27576
 Alpha  occ. eigenvalues --  -10.24416 -10.23914 -10.23354 -10.21256 -10.18749
 Alpha  occ. eigenvalues --  -10.18067  -1.05366  -0.95053  -0.91587  -0.88220
 Alpha  occ. eigenvalues --   -0.78058  -0.73719  -0.68668  -0.64731  -0.63417
 Alpha  occ. eigenvalues --   -0.59514  -0.54712  -0.51592  -0.50410  -0.48231
 Alpha  occ. eigenvalues --   -0.47831  -0.45502  -0.44889  -0.44458  -0.43154
 Alpha  occ. eigenvalues --   -0.41821  -0.41072  -0.39335  -0.39121  -0.38298
 Alpha  occ. eigenvalues --   -0.35820  -0.34043  -0.33814  -0.31530  -0.28287
 Alpha  occ. eigenvalues --   -0.25413  -0.24912  -0.23326
 Alpha virt. eigenvalues --   -0.07219   0.05012   0.06349   0.08227   0.08801
 Alpha virt. eigenvalues --    0.09908   0.11430   0.12540   0.13820   0.14206
 Alpha virt. eigenvalues --    0.15709   0.16622   0.16952   0.17289   0.18224

 Mulliken charges:
               1
     1  C   -0.379898
     2  C   -0.183101
     3  C   -0.103486
     4  N   -0.310091
     5  C   -0.061891
     6  N   -0.311083
     7  C   -0.230887
     8  C    0.200167
     9  N   -0.419410
    10  C    0.131651
    11  O   -0.218981
    12  H    0.117197
    13  H    0.115615
    14  H    0.118166
    15  H    0.090867
    16  H    0.113290
    17  H    0.105821
    18  H    0.075917
    19  H    0.208074
    20  H    0.113171
    21  H    0.063147
    22  H    0.220130
    23  H    0.135172
    24  H    0.101279
    25  H    0.237835
    26  H    0.071330
 Sum of Mulliken charges =  -0.00000

 Dipole moment (field-independent basis, Debye):
    X=             -4.8062    Y=             -3.0017    Z=              1.3781  Tot=              5.8318
 Quadrupole moment (field-independent basis, Debye-Ang):
   XX=            -91.9063   YY=            -69.7013   ZZ=            -63.9682
   XY=             -9.3039   XZ=              0.0794   YZ=              2.1192

  Exact polarizability: 137.134  -1.430  96.262   1.250  -0.663  75.226
 Approx polarizability: 155.090   1.088 155.926   1.335  -1.903 118.140

                      1                      2                      3
                      A                      A                      A
 Frequencies --     24.6755                29.7036                51.1197
 Red. masses --      3.4745                 2.9656                 3.3584
 Frc consts  --      0.0012                 0.0015                 0.0052
 IR Inten    --      1.5143                 0.5560                 3.4808

                      4                      5                      6
                      A                      A                      A
 Frequencies --     67.5131                88.8569               124.4545
 Red. masses --      3.5081                 3.4352                 2.3561
 Frc consts  --      0.0094                 0.0160                 0.0215
 IR Inten    --      3.2949                 1.4982                 1.7101

                      7                      8                      9
                      A                      A                      A
 Frequencies --    129.7432               141.5240               175.7431
 Red. masses --      1.9506                 2.3366                 3.0371
 Frc consts  --      0.0193                 0.0276                 0.0553
 IR Inten    --      2.1902                 0.3577                 0.4758

                     10                     11                     12
                      A                      A                      A
 Frequencies --    221.9845               238.7206               272.9548
 Red. masses --      5.2122                 1.1313                 4.4824
 Frc consts  --      0.1513                 0.0380                 0.1968
 IR Inten    --      0.6460                 0.0383                 1.7654

                     13                     14                     15
                      A                      A                      A
 Frequencies --    333.6899               403.9180               444.3087
 Red. masses --      4.3028                 3.8865                 3.6451
 Frc consts  --      0.2823                 0.3736                 0.4240
 IR Inten    --      1.0568                 0.6369                 0.8870

                     16                     17                     18
                      A                      A                      A
 Frequencies --    450.6100               555.9896               713.8659
 Red. masses --      2.9353                 3.8837                 3.7513
 Frc consts  --      0.3512                 0.7073                 1.1263
 IR Inten    --      0.0288                 0.2855                54.3928

                     19                     20                     21
                      A                      A                      A
 Frequencies --    757.5164               761.3774               792.8958
 Red. masses --      1.2315                 1.0905                 1.1945
 Frc consts  --      0.4164                 0.3725                 0.4425
 IR Inten    --     16.4252                 3.2137               103.4275

                     22                     23                     24
                      A                      A                      A
 Frequencies --    844.6300               897.9229               905.6679
 Red. masses --      1.3065                 1.2550                 2.4055
 Frc consts  --      0.5491                 0.5962                 1.1625
 IR Inten    --     21.6234                 7.4030                23.6347

                     25                     26                     27
                      A                      A                      A
 Frequencies --    916.2589               987.5459              1030.9414
 Red. masses --      2.3146                 2.6613                 2.9999
 Frc consts  --      1.1449                 1.5292                 1.8786
 IR Inten    --     17.9999                 3.8721                 6.4174

                     28                     29                     30
                      A                      A                      A
 Frequencies --   1040.9024              1061.5134              1070.7225
 Red. masses --      1.8273                 2.2159                 2.0626
 Frc consts  --      1.1665                 1.4711                 1.3932
 IR Inten    --      1.7287                15.4382                 4.7918

                     31                     32                     33
                      A                      A                      A
 Frequencies --   1077.6134              1111.5906              1152.8435
 Red. masses --      1.6328                 1.7440                 2.2315
 Frc consts  --      1.1171                 1.2696                 1.7474
 IR Inten    --     19.9131                10.4681                 3.3255

                     34                     35                     36
                      A                      A                      A
 Frequencies --   1157.6860              1165.3124              1187.9095
 Red. masses --      2.9890                 3.5612                 1.3709
 Frc consts  --      2.3602                 2.8492                 1.1398
 IR Inten    --     44.1765               143.1446                 5.7833

                     37                     38                     39
                      A                      A                      A
 Frequencies --   1242.5045              1285.4141              1301.8150
 Red. masses --      1.4455                 1.3527                 1.2082
 Frc consts  --      1.3148                 1.3169                 1.2064
 IR Inten    --      7.0436                 4.9914                38.3525

                     40                     41                     42
                      A                      A                      A
 Frequencies --   1305.7113              1324.6721              1331.7337
 Red. masses --      1.2609                 1.1186                 1.2924
 Frc consts  --      1.2665                 1.1565                 1.3505
 IR Inten    --    117.8177                 2.8677                15.5077

                     43                     44                     45
                      A                      A                      A
 Frequencies --   1379.8835              1402.3084              1413.1704
 Red. masses --      1.3986                 1.4929                 1.2409
 Frc consts  --      1.5690                 1.7297                 1.4601
 IR Inten    --     14.8493                14.4002                 1.3425

                     46                     47                     48
                      A                      A                      A
 Frequencies --   1435.9968              1446.6621              1481.0485
 Red. masses --      1.3530                 1.3370                 1.2277
 Frc consts  --      1.6438                 1.6486                 1.5867
 IR Inten    --      1.7188                28.8028               108.2719

                     49                     50                     51
                      A                      A                      A
 Frequencies --   1484.2084              1490.4098              1500.2605
 Red. masses --      1.1343                 1.0603                 1.0427
 Frc consts  --      1.4722                 1.3877                 1.3827
 IR Inten    --      4.0872                 0.2965                 5.3366

                     52                     53                     54
                      A                      A                      A
 Frequencies --   1504.8338              1512.0170              1520.2240
 Red. masses --      1.0735                 1.1941                 1.0971
 Frc consts  --      1.4323                 1.6084                 1.4938
 IR Inten    --      1.3675                 1.3308                 2.2856

                     55                     56                     57
                      A                      A                      A
 Frequencies --   1537.5755              1714.8941              1836.8794
 Red. masses --      1.1155                 9.2955                10.6149
 Frc consts  --      1.5539                16.1064                21.1022
 IR Inten    --      0.2860                40.2389                90.6131

                     58                     59                     60
                      A                      A                      A
 Frequencies --   2820.8987              2853.7660              2910.8904
 Red. masses --      1.0733                 1.0809                 1.0727
 Frc consts  --      5.0320                 5.1867                 5.3554
 IR Inten    --     98.7569               101.3990                74.0239

                     61                     62                     63
                      A                      A                      A
 Frequencies --   2917.3422              3010.4947              3012.2804
 Red. masses --      1.0729                 1.0691                 1.0838
 Frc consts  --      5.3799                 5.7089                 5.7941
 IR Inten    --     79.3882                13.6495                11.0508

                     64                     65                     66
                      A                      A                      A
 Frequencies --   3027.4957              3030.9788              3033.6320
 Red. masses --      1.0813                 1.0594                 1.0594
 Frc consts  --      5.8393                 5.7342                 5.7443
 IR Inten    --      0.5379                25.4042                70.1205

                     67                     68                     69
                      A                      A                      A
 Frequencies --   3065.5980              3098.7679              3107.3032
 Red. masses --      1.0962                 1.1021                 1.1006
 Frc consts  --      6.0700                 6.2349                 6.2612
 IR Inten    --     11.8488                50.9933                32.0022

                     70                     71                     72
                      A                      A                      A
 Frequencies --   3385.5219              3483.6656              3501.1109
 Red. masses --      1.0721                 1.0730                 1.0735
 Frc consts  --      7.2401                 7.6723                 7.7529
 IR Inten    --     14.8429                 1.0434                 0.3325

 - Thermochemistry -
 -------------------
 Temperature   298.150 Kelvin.  Pressure   1.00000 Atm.
 Atom     1 has atomic number  6 and mass  12.00000

 Molecular mass:   157.12151 amu.
 Principal axes and moments of inertia in atomic units:
                           1         2         3
     Eigenvalues --   300.486326917.610497115.10112
           X            0.99999  -0.00354   0.00115
           Y            0.00351   0.99975   0.02202
           Z           -0.00123  -0.02202   0.99976
 This molecule is an asymmetric top.
 Rotational symmetry number  1.
 Rotational temperatures (Kelvin)      0.28825     0.01252     0.01217
 Rotational constants (GHZ):           6.00607     0.26089     0.25365
 Zero-point vibrational energy     592762.8 (Joules/Mol)
                                  141.67370 (Kcal/Mol)
 Warning -- explicit consideration of  17 degrees of freedom as
           vibrations may cause significant error
 Vibrational temperatures:     35.50    42.74    73.55    97.14   127.85
          (Kelvin)            179.06   186.67   203.62   252.86   319.39
                              343.47   392.72   480.11   581.15   639.26
                              648.33   799.94  1027.09  1089.90  1095.45
                             1140.80  1215.23  1291.91  1303.05  1318.29
                             1420.86  1483.29  1497.63  1527.28  1540.53
                             1550.45  1599.33  1658.68  1665.65  1676.62
                             1709.14  1787.69  1849.42  1873.02  1878.63
                             1905.91  1916.07  1985.34  2017.61  2033.24
                             2066.08  2081.42  2130.90  2135.44  2144.37
                             2158.54  2165.12  2175.46  2187.26  2212.23
                             2467.35  2642.86  4058.64  4105.93  4188.12
                             4197.40  4331.43  4334.00  4355.89  4360.90
                             4364.72  4410.71  4458.44  4470.72  4871.01
                             5012.22  5037.32

 Zero-point correction=                           0.225771 (Hartree/Particle)
 Thermal correction to Energy=                    0.239299
 Thermal correction to Enthalpy=                  0.240243
 Thermal correction to Gibbs Free Energy=         0.183072
 Sum of electronic and zero-point Energies=           -515.010971
 Sum of electronic and thermal Energies=              -514.997443
 Sum of electronic and thermal Enthalpies=            -514.996499
 Sum of electronic and thermal Free Energies=         -515.053670

                     E (Thermal)             CV                S
                      KCal/Mol        Cal/Mol-Kelvin    Cal/Mol-Kelvin
 Total                  150.163             45.896            120.327
 Electronic               0.000              0.000              0.000
 Translational            0.889              2.981             41.065
 Rotational               0.889              2.981             31.070
 Vibrational            148.385             39.934             48.192
 Vibration     1          0.593              1.985              6.217
 Vibration     2          0.593              1.984              5.849
 Vibration     3          0.595              1.977              4.774
 Vibration     4          0.598              1.970              4.225
 Vibration     5          0.602              1.957              3.685
 Vibration     6          0.610              1.929              3.030
 Vibration     7          0.612              1.924              2.950
 Vibration     8          0.615              1.912              2.783
 Vibration     9          0.628              1.872              2.373
 Vibration    10          0.648              1.808              1.943
 Vibration    11          0.657              1.781              1.812
 Vibration    12          0.676              1.723              1.577
 Vibration    13          0.715              1.608              1.242
 Vibration    14          0.769              1.462              0.948
 Vibration    15          0.804              1.373              0.813
 Vibration    16          0.809              1.360              0.794
 Vibration    17          0.911              1.127              0.532

                           ! Non-Optimized Parameters !
 Normal termination of Gaussian 16 at Tue Jun  1 00:44:17 2021.
