 Gaussian 16, Revision A.03,
 Gaussian 16:  ES64L-G16RevA.03 25-Dec-2016

 -----------------------------
 # opt freq b3lyp/6-31g(2df,p)
 -----------------------------

 -------------------
 Title Card Required
 -------------------
 Symbolic Z-matrix:
 Charge =  0 Multiplicity = 1

 SCF Done:  E(RB3LYP) =  -403.051263539     A.U. after   12 cycles
 SCF Done:  E(RB3LYP) =  -403.055841836     A.U. after   10 cycles
 SCF Done:  E(RB3LYP) =  -403.055968800     A.U. after   11 cycles
 SCF Done:  E(RB3LYP) =  -403.056104895     A.U. after   11 cycles
 SCF Done:  E(RB3LYP) =  -403.059607877     A.U. after   11 cycles
 SCF Done:  E(RB3LYP) =  -403.061393845     A.U. after   11 cycles
 SCF Done:  E(RB3LYP) =  -403.064629861     A.U. after   11 cycles
 SCF Done:  E(RB3LYP) =  -403.067795374     A.U. after   12 cycles
 SCF Done:  E(RB3LYP) =  -403.067534834     A.U. after   11 cycles
 SCF Done:  E(RB3LYP) =  -403.068934745     A.U. after   11 cycles
 SCF Done:  E(RB3LYP) =  -403.081419219     A.U. after   10 cycles
 SCF Done:  E(RB3LYP) =  -403.082963826     A.U. after   10 cycles
 SCF Done:  E(RB3LYP) =  -403.083011501     A.U. after    9 cycles
 SCF Done:  E(RB3LYP) =  -403.083020663     A.U. after    8 cycles
 SCF Done:  E(RB3LYP) =  -403.083022701     A.U. after    7 cycles
 SCF Done:  E(RB3LYP) =  -403.083024037     A.U. after    7 cycles
 SCF Done:  E(RB3LYP) =  -403.083024527     A.U. after    7 cycles
 SCF Done:  E(RB3LYP) =  -403.083024684     A.U. after    6 cycles
 SCF Done:  E(RB3LYP) =  -403.083024667     A.U. after    5 cycles
 Optimization completed.
    -- Stationary point found.
 Normal termination of Gaussian 16 at Tue Jun  1 20:47:34 2021.

 ----------------------------------------------------------------------
 #N Geom=AllCheck Guess=TCheck SCRF=Check GenChk RB3LYP/6-31G(2df,p) Fr
 eq
 ----------------------------------------------------------------------

 Structure from the checkpoint file:  "CCCNpCpNpCpNC.chk"
 -------------------
 Title Card Required
 -------------------
 Charge =  0 Multiplicity = 1

                         Standard orientation:
 ---------------------------------------------------------------------
 Center     Atomic      Atomic             Coordinates (Angstroms)
 Number     Number       Type             X           Y           Z
 ---------------------------------------------------------------------
      1          6           0       -3.451650    0.645808   -0.542722
      2          6           0       -2.254143    0.432919    0.387738
      3          6           0       -1.066079   -0.213337   -0.334060
      4          7           0        0.120361   -0.325458    0.517069
      5          6           0        0.038511   -1.382569    1.510508
      6          7           0        1.380821   -0.399383   -0.172744
      7          6           0        1.415782   -1.300133   -1.321019
      8          7           0        1.861143    0.869763   -0.564508
      9          6           0        2.270759    1.662793    0.588534
     10          1           0       -4.290700    1.102719   -0.009576
     11          1           0       -3.803125   -0.302739   -0.963725
     12          1           0       -3.193273    1.302811   -1.380926
     13          1           0       -2.562193   -0.191446    1.234246
     14          1           0       -1.924707    1.388426    0.811496
     15          1           0       -0.805694    0.419167   -1.191806
     16          1           0       -1.376782   -1.191227   -0.747798
     17          1           0       -0.791626   -1.186840    2.195450
     18          1           0        0.968266   -1.396072    2.081318
     19          1           0       -0.118134   -2.387225    1.074680
     20          1           0        1.030927   -2.280180   -1.024546
     21          1           0        2.455591   -1.408044   -1.634450
     22          1           0        0.833654   -0.943409   -2.186987
     23          1           0        1.139159    1.374607   -1.086379
     24          1           0        3.132501    1.182344    1.060696
     25          1           0        1.477704    1.776259    1.340351
     26          1           0        2.573076    2.653513    0.235365
 ---------------------------------------------------------------------

 SCF Done:  E(RB3LYP) =  -403.083024667     A.U. after    1 cycles

 The electronic state is 1-A.
 Alpha  occ. eigenvalues --  -14.35944 -14.33570 -14.33064 -10.20344 -10.19412
 Alpha  occ. eigenvalues --  -10.19383 -10.18689 -10.18073 -10.17602  -1.00059
 Alpha  occ. eigenvalues --   -0.88599  -0.79185  -0.76625  -0.69341  -0.67263
 Alpha  occ. eigenvalues --   -0.64660  -0.60257  -0.56301  -0.51074  -0.48015
 Alpha  occ. eigenvalues --   -0.47784  -0.45223  -0.44277  -0.41549  -0.41028
 Alpha  occ. eigenvalues --   -0.40284  -0.39478  -0.38161  -0.37310  -0.37103
 Alpha  occ. eigenvalues --   -0.36107  -0.35371  -0.33912  -0.32826  -0.23722
 Alpha  occ. eigenvalues --   -0.22197  -0.21031
 Alpha virt. eigenvalues --    0.07450   0.09949   0.10212   0.12023   0.13726
 Alpha virt. eigenvalues --    0.14217   0.14694   0.15017   0.15744   0.16291
 Alpha virt. eigenvalues --    0.17242   0.17871   0.18361   0.18838   0.19131

 Mulliken charges:
               1
     1  C   -0.380588
     2  C   -0.179314
     3  C   -0.116748
     4  N   -0.047844
     5  C   -0.310452
     6  N   -0.070263
     7  C   -0.303675
     8  N   -0.239884
     9  C   -0.288080
    10  H    0.115031
    11  H    0.116001
    12  H    0.113458
    13  H    0.100665
    14  H    0.104476
    15  H    0.091859
    16  H    0.077932
    17  H    0.117755
    18  H    0.128119
    19  H    0.088985
    20  H    0.117519
    21  H    0.131850
    22  H    0.093937
    23  H    0.199318
    24  H    0.122700
    25  H    0.108757
    26  H    0.108485
 Sum of Mulliken charges =  -0.00000

 Dipole moment (field-independent basis, Debye):
    X=             -1.4221    Y=             -0.0527    Z=             -0.2250  Tot=              1.4408
 Quadrupole moment (field-independent basis, Debye-Ang):
   XX=            -61.2982   YY=            -56.3578   ZZ=            -58.3179
   XY=              0.0735   XZ=              0.5524   YZ=             -0.3207

  Exact polarizability: 101.156   1.992  89.437  -0.149   0.092  84.588
 Approx polarizability: 126.950   3.706 126.382  -1.014  -1.844 122.798

                      1                      2                      3
                      A                      A                      A
 Frequencies --     61.0938                67.9955               110.1030
 Red. masses --      3.0579                 1.6122                 2.4165
 Frc consts  --      0.0067                 0.0044                 0.0173
 IR Inten    --      0.1578                 0.0185                 0.5238

                      4                      5                      6
                      A                      A                      A
 Frequencies --    138.2248               160.6286               197.0924
 Red. masses --      2.3872                 2.6747                 1.1497
 Frc consts  --      0.0269                 0.0407                 0.0263
 IR Inten    --      0.3936                 0.7554                 0.5269

                      7                      8                      9
                      A                      A                      A
 Frequencies --    218.7187               235.2430               245.1893
 Red. masses --      1.1278                 1.2025                 1.2295
 Frc consts  --      0.0318                 0.0392                 0.0436
 IR Inten    --      2.1518                 0.6305                 0.6644

                     10                     11                     12
                      A                      A                      A
 Frequencies --    277.1591               298.1531               318.5945
 Red. masses --      1.7565                 1.9802                 2.7141
 Frc consts  --      0.0795                 0.1037                 0.1623
 IR Inten    --      0.8590                 2.5433                 2.2913

                     13                     14                     15
                      A                      A                      A
 Frequencies --    351.5193               424.3550               487.3843
 Red. masses --      2.4862                 2.8645                 2.9917
 Frc consts  --      0.1810                 0.3039                 0.4187
 IR Inten    --      0.1551                 9.9833                 2.9305

                     16                     17                     18
                      A                      A                      A
 Frequencies --    543.3007               555.3821               735.2167
 Red. masses --      3.0753                 3.3214                 2.9698
 Frc consts  --      0.5348                 0.6036                 0.9458
 IR Inten    --      5.2117                 5.0370                11.9691

                     19                     20                     21
                      A                      A                      A
 Frequencies --    757.5699               832.4090               887.0693
 Red. masses --      1.1546                 2.0657                 1.4600
 Frc consts  --      0.3904                 0.8433                 0.6769
 IR Inten    --      6.4376                65.8466                 4.6859

                     22                     23                     24
                      A                      A                      A
 Frequencies --    896.2460               933.2792               979.3918
 Red. masses --      1.6258                 1.7388                 1.9796
 Frc consts  --      0.7694                 0.8923                 1.1188
 IR Inten    --      9.0911                20.5652                13.0134

                     25                     26                     27
                      A                      A                      A
 Frequencies --   1045.1739              1076.2811              1092.7211
 Red. masses --      2.7271                 3.5967                 1.8400
 Frc consts  --      1.7552                 2.4547                 1.2945
 IR Inten    --      1.2632                25.0688                 3.7913

                     28                     29                     30
                      A                      A                      A
 Frequencies --   1126.9365              1129.2507              1143.4320
 Red. masses --      1.5411                 1.6307                 1.5724
 Frc consts  --      1.1531                 1.2252                 1.2112
 IR Inten    --      2.3704                 5.2864                 3.5602

                     31                     32                     33
                      A                      A                      A
 Frequencies --   1150.1787              1182.5021              1211.2803
 Red. masses --      1.5193                 1.6241                 2.5187
 Frc consts  --      1.1842                 1.3380                 2.1773
 IR Inten    --      1.5026                18.8199                 8.4514

                     34                     35                     36
                      A                      A                      A
 Frequencies --   1221.7263              1240.9375              1254.5856
 Red. masses --      2.9167                 2.1995                 2.2726
 Frc consts  --      2.5650                 1.9956                 2.1075
 IR Inten    --      6.5942                 7.4777                 1.8314

                     37                     38                     39
                      A                      A                      A
 Frequencies --   1288.7990              1334.8216              1337.7205
 Red. masses --      1.3404                 1.1996                 1.3080
 Frc consts  --      1.3118                 1.2593                 1.3791
 IR Inten    --      4.3914                 6.0917                 2.0769

                     40                     41                     42
                      A                      A                      A
 Frequencies --   1404.2712              1414.1746              1433.7063
 Red. masses --      1.4022                 1.2364                 1.1728
 Frc consts  --      1.6292                 1.4568                 1.4203
 IR Inten    --      1.5870                 1.6212                 0.2969

                     43                     44                     45
                      A                      A                      A
 Frequencies --   1438.8517              1446.2429              1472.2704
 Red. masses --      1.1879                 1.1583                 1.0475
 Frc consts  --      1.4490                 1.4274                 1.3378
 IR Inten    --      0.0351                 3.2403                 4.0686

                     46                     47                     48
                      A                      A                      A
 Frequencies --   1473.7703              1482.0131              1489.4499
 Red. masses --      1.0781                 1.0666                 1.0710
 Frc consts  --      1.3797                 1.3803                 1.3999
 IR Inten    --      4.3062                 3.0688                 6.2340

                     49                     50                     51
                      A                      A                      A
 Frequencies --   1495.1634              1500.2257              1502.0257
 Red. masses --      1.0641                 1.0401                 1.0608
 Frc consts  --      1.4015                 1.3792                 1.4100
 IR Inten    --      2.0127                 5.3535                 0.7312

                     52                     53                     54
                      A                      A                      A
 Frequencies --   1507.5600              1509.4347              1513.1318
 Red. masses --      1.0620                 1.0977                 1.0901
 Frc consts  --      1.4221                 1.4736                 1.4705
 IR Inten    --      6.5481                 2.5630                 5.0870

                     55                     56                     57
                      A                      A                      A
 Frequencies --   1530.1599              2922.0183              2931.1021
 Red. masses --      1.0691                 1.0698                 1.0615
 Frc consts  --      1.4749                 5.3816                 5.3731
 IR Inten    --      7.7058                26.7658                95.9160

                     58                     59                     60
                      A                      A                      A
 Frequencies --   2966.7727              3006.1031              3029.1067
 Red. masses --      1.0567                 1.0420                 1.0368
 Frc consts  --      5.4798                 5.5478                 5.6050
 IR Inten    --     70.1652                47.3994                23.2788

                     61                     62                     63
                      A                      A                      A
 Frequencies --   3032.7509              3040.1101              3068.1649
 Red. masses --      1.0703                 1.0745                 1.0961
 Frc consts  --      5.7999                 5.8512                 6.0792
 IR Inten    --      6.0182                33.3627                 8.5663

                     64                     65                     66
                      A                      A                      A
 Frequencies --   3076.3284              3079.3511              3080.5872
 Red. masses --      1.0773                 1.0902                 1.0776
 Frc consts  --      6.0072                 6.0905                 6.0252
 IR Inten    --     32.3292                35.4117                30.0459

                     67                     68                     69
                      A                      A                      A
 Frequencies --   3098.0886              3104.4267              3113.2901
 Red. masses --      1.1025                 1.1005                 1.1028
 Frc consts  --      6.2348                 6.2487                 6.2978
 IR Inten    --     60.3105                34.8585                21.8099

                     70                     71                     72
                      A                      A                      A
 Frequencies --   3132.1545              3135.0106              3368.6343
 Red. masses --      1.1020                 1.1002                 1.0727
 Frc consts  --      6.3694                 6.3707                 7.1720
 IR Inten    --     18.2869                18.6137                17.8287

 - Thermochemistry -
 -------------------
 Temperature   298.150 Kelvin.  Pressure   1.00000 Atm.
 Atom     1 has atomic number  6 and mass  12.00000

 Molecular mass:   131.14225 amu.
 Principal axes and moments of inertia in atomic units:
                           1         2         3
     Eigenvalues --   835.362782008.731172144.77335
           X            0.99996  -0.00218   0.00893
           Y            0.00191   0.99955   0.02997
           Z           -0.00900  -0.02995   0.99951
 This molecule is an asymmetric top.
 Rotational symmetry number  1.
 Warning -- assumption of classical behavior for rotation
           may cause significant error
 Rotational temperatures (Kelvin)      0.10368     0.04312     0.04038
 Rotational constants (GHZ):           2.16043     0.89845     0.84146
 Zero-point vibrational energy     624116.4 (Joules/Mol)
                                  149.16741 (Kcal/Mol)
 Warning -- explicit consideration of  17 degrees of freedom as
           vibrations may cause significant error
 Vibrational temperatures:     87.90    97.83   158.41   198.87   231.11
          (Kelvin)            283.57   314.69   338.46   352.77   398.77
                              428.98   458.39   505.76   610.55   701.24
                              781.69   799.07  1057.81  1089.97  1197.65
                             1276.29  1289.50  1342.78  1409.13  1503.77
                             1548.53  1572.18  1621.41  1624.74  1645.14
                             1654.85  1701.36  1742.76  1757.79  1785.43
                             1805.07  1854.29  1920.51  1924.68  2020.43
                             2034.68  2062.78  2070.19  2080.82  2118.27
                             2120.43  2132.29  2142.99  2151.21  2158.49
                             2161.08  2169.04  2171.74  2177.06  2201.56
                             4204.13  4217.20  4268.52  4325.11  4358.21
                             4363.45  4374.04  4414.40  4426.15  4430.50
                             4432.28  4457.46  4466.58  4479.33  4506.47
                             4510.58  4846.71

 Zero-point correction=                           0.237713 (Hartree/Particle)
 Thermal correction to Energy=                    0.249613
 Thermal correction to Enthalpy=                  0.250557
 Thermal correction to Gibbs Free Energy=         0.200470
 Sum of electronic and zero-point Energies=           -402.845311
 Sum of electronic and thermal Energies=              -402.833412
 Sum of electronic and thermal Enthalpies=            -402.832468
 Sum of electronic and thermal Free Energies=         -402.882555

                     E (Thermal)             CV                S
                      KCal/Mol        Cal/Mol-Kelvin    Cal/Mol-Kelvin
 Total                  156.634             43.016            105.418
 Electronic               0.000              0.000              0.000
 Translational            0.889              2.981             40.526
 Rotational               0.889              2.981             29.666
 Vibrational            154.857             37.054             35.226
 Vibration     1          0.597              1.973              4.422
 Vibration     2          0.598              1.969              4.211
 Vibration     3          0.606              1.941              3.267
 Vibration     4          0.614              1.915              2.828
 Vibration     5          0.622              1.891              2.542
 Vibration     6          0.636              1.844              2.160
 Vibration     7          0.646              1.813              1.970
 Vibration     8          0.655              1.787              1.839
 Vibration     9          0.660              1.771              1.765
 Vibration    10          0.678              1.716              1.551
 Vibration    11          0.691              1.677              1.427
 Vibration    12          0.705              1.638              1.317
 Vibration    13          0.728              1.572              1.159
 Vibration    14          0.786              1.417              0.877
 Vibration    15          0.843              1.278              0.690
 Vibration    16          0.898              1.154              0.558
 Vibration    17          0.911              1.128              0.533

 Optimization completed.
    -- Stationary point found.
 Normal termination of Gaussian 16 at Tue Jun  1 21:30:17 2021.
