 Gaussian 16, Revision A.03,
 Gaussian 16:  ES64L-G16RevA.03 25-Dec-2016

 -----------------------------
 # opt freq b3lyp/6-31g(2df,p)
 -----------------------------

 -------------------
 Title Card Required
 -------------------
 Symbolic Z-matrix:
 Charge =  0 Multiplicity = 1

 SCF Done:  E(RB3LYP) =  -401.937434659     A.U. after   13 cycles
 SCF Done:  E(RB3LYP) =  -401.944334966     A.U. after   12 cycles
 SCF Done:  E(RB3LYP) =  -401.945891066     A.U. after   11 cycles
 SCF Done:  E(RB3LYP) =  -401.946373571     A.U. after   12 cycles
 SCF Done:  E(RB3LYP) =  -401.946519068     A.U. after    9 cycles
 SCF Done:  E(RB3LYP) =  -401.946541512     A.U. after    8 cycles
 SCF Done:  E(RB3LYP) =  -401.946544995     A.U. after    9 cycles
 SCF Done:  E(RB3LYP) =  -401.946547006     A.U. after    7 cycles
 SCF Done:  E(RB3LYP) =  -401.946548774     A.U. after    7 cycles
 SCF Done:  E(RB3LYP) =  -401.946551569     A.U. after    8 cycles
 SCF Done:  E(RB3LYP) =  -401.945560426     A.U. after   11 cycles
 SCF Done:  E(RB3LYP) =  -401.946788644     A.U. after   10 cycles
 SCF Done:  E(RB3LYP) =  -401.947091954     A.U. after   11 cycles
 SCF Done:  E(RB3LYP) =  -401.946944315     A.U. after   11 cycles
 SCF Done:  E(RB3LYP) =  -401.947469618     A.U. after   10 cycles
 SCF Done:  E(RB3LYP) =  -401.947490447     A.U. after    9 cycles
 SCF Done:  E(RB3LYP) =  -401.947485225     A.U. after   11 cycles
 SCF Done:  E(RB3LYP) =  -401.947510642     A.U. after   10 cycles
 SCF Done:  E(RB3LYP) =  -401.947510949     A.U. after    7 cycles
 Optimization completed.
    -- Stationary point found.
 Normal termination of Gaussian 16 at Tue Jun  1 23:20:45 2021.

 ----------------------------------------------------------------------
 #N Geom=AllCheck Guess=TCheck SCRF=Check GenChk RB3LYP/6-31G(2df,p) Fr
 eq
 ----------------------------------------------------------------------

 Structure from the checkpoint file:  "CCCNCCpdNpNC.chk"
 -------------------
 Title Card Required
 -------------------
 Charge =  0 Multiplicity = 1

                         Standard orientation:
 ---------------------------------------------------------------------
 Center     Atomic      Atomic             Coordinates (Angstroms)
 Number     Number       Type             X           Y           Z
 ---------------------------------------------------------------------
      1          6           0       -4.530337   -0.135274   -0.009787
      2          6           0       -3.154320    0.496025    0.214218
      3          6           0       -2.004880   -0.458690   -0.107331
      4          7           0       -0.712359    0.188902    0.082867
      5          6           0        0.430364   -0.659075   -0.195538
      6          6           0        1.735975    0.130037   -0.116901
      7          7           0        1.835641    1.400780   -0.213482
      8          7           0        2.851671   -0.659593    0.012141
      9          6           0        4.160476   -0.061006    0.190823
     10          1           0       -5.332372    0.567858    0.233143
     11          1           0       -4.667940   -1.025138    0.614405
     12          1           0       -4.661204   -0.440439   -1.053851
     13          1           0       -3.067007    0.823192    1.259574
     14          1           0       -3.042321    1.396388   -0.400321
     15          1           0       -2.071088   -0.772693   -1.157996
     16          1           0       -2.113236   -1.380961    0.496207
     17          1           0       -0.642845    0.550337    1.029498
     18          1           0        0.323896   -1.055343   -1.214410
     19          1           0        0.494545   -1.546034    0.466366
     20          1           0        0.904687    1.783700   -0.380345
     21          1           0        2.712678   -1.576448    0.403504
     22          1           0        4.345605    0.651428   -0.616011
     23          1           0        4.919382   -0.846713    0.158606
     24          1           0        4.248876    0.488143    1.138047
 ---------------------------------------------------------------------

 SCF Done:  E(RB3LYP) =  -401.947510949     A.U. after    1 cycles

 The electronic state is 1-A.
 Alpha  occ. eigenvalues --  -14.33404 -14.31981 -14.26788 -10.23419 -10.21465
 Alpha  occ. eigenvalues --  -10.20743 -10.20046 -10.18285 -10.17700  -0.94423
 Alpha  occ. eigenvalues --   -0.90657  -0.83791  -0.77723  -0.71661  -0.67725
 Alpha  occ. eigenvalues --   -0.63634  -0.59294  -0.56842  -0.50647  -0.47842
 Alpha  occ. eigenvalues --   -0.46421  -0.44818  -0.44421  -0.43039  -0.41805
 Alpha  occ. eigenvalues --   -0.40607  -0.39181  -0.37947  -0.37693  -0.35266
 Alpha  occ. eigenvalues --   -0.33628  -0.33372  -0.31241  -0.24202  -0.22909
 Alpha  occ. eigenvalues --   -0.21619
 Alpha virt. eigenvalues --    0.04620   0.07672   0.08961   0.10246   0.11591
 Alpha virt. eigenvalues --    0.13295   0.13949   0.15838   0.16415   0.16761
 Alpha virt. eigenvalues --    0.17394   0.17749   0.18684   0.19343   0.19689

 Mulliken charges:
               1
     1  C   -0.379105
     2  C   -0.183745
     3  C   -0.098726
     4  N   -0.297242
     5  C   -0.221062
     6  C    0.328264
     7  N   -0.523910
     8  N   -0.300710
     9  C   -0.307375
    10  H    0.116139
    11  H    0.114956
    12  H    0.116984
    13  H    0.092396
    14  H    0.110791
    15  H    0.102850
    16  H    0.073898
    17  H    0.219513
    18  H    0.129425
    19  H    0.073552
    20  H    0.216118
    21  H    0.233314
    22  H    0.151864
    23  H    0.110572
    24  H    0.121237
 Sum of Mulliken charges =  -0.00000

 Dipole moment (field-independent basis, Debye):
    X=             -1.1825    Y=             -2.8484    Z=              1.1338  Tot=              3.2859
 Quadrupole moment (field-independent basis, Debye-Ang):
   XX=            -54.5816   YY=            -58.8569   ZZ=            -56.2653
   XY=             -7.2779   XZ=              1.6998   YZ=              0.0037

  Exact polarizability: 116.742  -2.849  85.220   2.182  -1.051  67.462
 Approx polarizability: 126.674  -5.346 138.778   2.335  -2.467 103.333

                      1                      2                      3
                      A                      A                      A
 Frequencies --     42.2488                66.6076                83.0367
 Red. masses --      3.3409                 2.0144                 2.7708
 Frc consts  --      0.0035                 0.0053                 0.0113
 IR Inten    --      0.0494                 0.9998                 0.9522

                      4                      5                      6
                      A                      A                      A
 Frequencies --    120.4607               127.3681               162.5810
 Red. masses --      2.6046                 1.0922                 2.4158
 Frc consts  --      0.0223                 0.0104                 0.0376
 IR Inten    --      0.3128                 0.0423                 1.6038

                      7                      8                      9
                      A                      A                      A
 Frequencies --    170.3123               223.3434               238.8082
 Red. masses --      2.6194                 2.8393                 1.1431
 Frc consts  --      0.0448                 0.0834                 0.0384
 IR Inten    --     11.4454                 0.9676                 0.4083

                     10                     11                     12
                      A                      A                      A
 Frequencies --    270.7064               317.1554               406.5738
 Red. masses --      3.6495                 2.9104                 2.5559
 Frc consts  --      0.1576                 0.1725                 0.2489
 IR Inten    --      7.7488                16.3683                26.4550

                     13                     14                     15
                      A                      A                      A
 Frequencies --    414.1932               503.9286               594.1747
 Red. masses --      1.4983                 3.5942                 2.9401
 Frc consts  --      0.1514                 0.5378                 0.6116
 IR Inten    --     55.9462                 1.3051                 2.6086

                     16                     17                     18
                      A                      A                      A
 Frequencies --    687.5751               760.5264               778.4039
 Red. masses --      3.0314                 1.0850                 1.2184
 Frc consts  --      0.8444                 0.3697                 0.4350
 IR Inten    --     19.0372                 1.6168                64.1826

                     19                     20                     21
                      A                      A                      A
 Frequencies --    888.7260               895.6060               906.2749
 Red. masses --      2.4708                 1.2050                 1.1219
 Frc consts  --      1.1498                 0.5695                 0.5429
 IR Inten    --      1.0697                11.7456                37.1077

                     22                     23                     24
                      A                      A                      A
 Frequencies --    924.5155               991.3458              1042.5976
 Red. masses --      1.9863                 2.4985                 2.0085
 Frc consts  --      1.0003                 1.4467                 1.2863
 IR Inten    --      1.9630                29.0923                 2.9919

                     25                     26                     27
                      A                      A                      A
 Frequencies --   1045.9399              1078.0013              1146.1574
 Red. masses --      2.5746                 2.3100                 2.0574
 Frc consts  --      1.6595                 1.5816                 1.5924
 IR Inten    --     17.2572                 0.9047                 0.5225

                     28                     29                     30
                      A                      A                      A
 Frequencies --   1151.9041              1161.8570              1176.2711
 Red. masses --      1.3128                 2.1847                 1.7712
 Frc consts  --      1.0263                 1.7376                 1.4439
 IR Inten    --      6.1792                46.4088                12.0693

                     31                     32                     33
                      A                      A                      A
 Frequencies --   1184.2678              1190.8941              1243.2515
 Red. masses --      1.6636                 2.2590                 1.3682
 Frc consts  --      1.3747                 1.8876                 1.2460
 IR Inten    --      0.3345                74.3329                 5.0491

                     34                     35                     36
                      A                      A                      A
 Frequencies --   1292.2720              1309.7944              1323.5904
 Red. masses --      1.2722                 1.2918                 1.0934
 Frc consts  --      1.2517                 1.3057                 1.1286
 IR Inten    --      3.0269                90.6540                 8.8440

                     37                     38                     39
                      A                      A                      A
 Frequencies --   1341.6035              1391.3076              1412.6116
 Red. masses --      1.3845                 1.5095                 1.2630
 Frc consts  --      1.4682                 1.7216                 1.4849
 IR Inten    --     26.8120                17.4568                 0.2720

                     40                     41                     42
                      A                      A                      A
 Frequencies --   1425.6594              1449.9034              1476.0038
 Red. masses --      1.4940                 1.1650                 1.0749
 Frc consts  --      1.7891                 1.4430                 1.3797
 IR Inten    --      3.9084                12.0741                28.8039

                     43                     44                     45
                      A                      A                      A
 Frequencies --   1485.6262              1490.8135              1496.6840
 Red. masses --      1.1551                 1.0820                 1.1222
 Frc consts  --      1.5021                 1.4168                 1.4811
 IR Inten    --      1.8179                 8.2152                33.3327

                     46                     47                     48
                      A                      A                      A
 Frequencies --   1500.9614              1505.7495              1510.7904
 Red. masses --      1.0544                 1.0763                 1.1101
 Frc consts  --      1.3996                 1.4377                 1.4928
 IR Inten    --     10.9008                 2.1867                 5.2421

                     49                     50                     51
                      A                      A                      A
 Frequencies --   1523.0266              1554.5880              1713.8916
 Red. masses --      1.0922                 1.7796                 7.3677
 Frc consts  --      1.4927                 2.5340                12.7511
 IR Inten    --      3.6880               140.4309               145.6664

                     52                     53                     54
                      A                      A                      A
 Frequencies --   2895.4140              2911.0122              3011.8138
 Red. masses --      1.0734                 1.0729                 1.0697
 Frc consts  --      5.3018                 5.3567                 5.7172
 IR Inten    --     71.5521                95.4783                 6.0788

                     55                     56                     57
                      A                      A                      A
 Frequencies --   3012.4955              3027.0876              3030.5773
 Red. masses --      1.0479                 1.0757                 1.0745
 Frc consts  --      5.6032                 5.8078                 5.8146
 IR Inten    --     60.9316                16.3764                19.7116

                     58                     59                     60
                      A                      A                      A
 Frequencies --   3032.2529              3064.5338              3090.1375
 Red. masses --      1.0479                 1.0968                 1.0861
 Frc consts  --      5.6766                 6.0688                 6.1104
 IR Inten    --     53.0802                11.8920                31.1256

                     61                     62                     63
                      A                      A                      A
 Frequencies --   3097.8621              3106.4208              3133.3143
 Red. masses --      1.1021                 1.1006                 1.1033
 Frc consts  --      6.2314                 6.2575                 6.3818
 IR Inten    --     52.1157                32.3186                13.0237

                     64                     65                     66
                      A                      A                      A
 Frequencies --   3478.7618              3510.0901              3640.4705
 Red. masses --      1.0727                 1.0735                 1.0762
 Frc consts  --      7.6488                 7.7929                 8.4034
 IR Inten    --     12.2100                 0.2328                13.5158

 - Thermochemistry -
 -------------------
 Temperature   298.150 Kelvin.  Pressure   1.00000 Atm.
 Atom     1 has atomic number  6 and mass  12.00000

 Molecular mass:   129.12660 amu.
 Principal axes and moments of inertia in atomic units:
                           1         2         3
     Eigenvalues --   268.020893609.261103790.28641
           X            1.00000  -0.00181   0.00231
           Y            0.00179   0.99996   0.00912
           Z           -0.00233  -0.00911   0.99996
 This molecule is an asymmetric top.
 Rotational symmetry number  1.
 Rotational temperatures (Kelvin)      0.32316     0.02400     0.02285
 Rotational constants (GHZ):           6.73358     0.50003     0.47615
 Zero-point vibrational energy     569678.1 (Joules/Mol)
                                  136.15633 (Kcal/Mol)
 Warning -- explicit consideration of  15 degrees of freedom as
           vibrations may cause significant error
 Vibrational temperatures:     60.79    95.83   119.47   173.32   183.25
          (Kelvin)            233.92   245.04   321.34   343.59   389.49
                              456.32   584.97   595.93   725.04   854.88
                              989.27  1094.23  1119.95  1278.68  1288.58
                             1303.93  1330.17  1426.33  1500.07  1504.87
                             1551.00  1649.06  1657.33  1671.65  1692.39
                             1703.90  1713.43  1788.76  1859.29  1884.50
                             1904.35  1930.27  2001.78  2032.43  2051.21
                             2086.09  2123.64  2137.48  2144.95  2153.39
                             2159.55  2166.44  2173.69  2191.30  2236.71
                             2465.91  4165.85  4188.30  4333.33  4334.31
                             4355.30  4360.32  4362.74  4409.18  4446.02
                             4457.13  4469.45  4508.14  5005.16  5050.24
                             5237.83

 Zero-point correction=                           0.216979 (Hartree/Particle)
 Thermal correction to Energy=                    0.228586
 Thermal correction to Enthalpy=                  0.229530
 Thermal correction to Gibbs Free Energy=         0.179029
 Sum of electronic and zero-point Energies=           -401.730532
 Sum of electronic and thermal Energies=              -401.718925
 Sum of electronic and thermal Enthalpies=            -401.717981
 Sum of electronic and thermal Free Energies=         -401.768482

                     E (Thermal)             CV                S
                      KCal/Mol        Cal/Mol-Kelvin    Cal/Mol-Kelvin
 Total                  143.440             40.418            106.289
 Electronic               0.000              0.000              0.000
 Translational            0.889              2.981             40.480
 Rotational               0.889              2.981             29.685
 Vibrational            141.662             34.456             36.125
 Vibration     1          0.595              1.980              5.151
 Vibration     2          0.598              1.970              4.251
 Vibration     3          0.600              1.961              3.818
 Vibration     4          0.609              1.932              3.093
 Vibration     5          0.611              1.926              2.985
 Vibration     6          0.623              1.888              2.520
 Vibration     7          0.625              1.879              2.432
 Vibration     8          0.649              1.806              1.932
 Vibration     9          0.657              1.781              1.812
 Vibration    10          0.674              1.727              1.592
 Vibration    11          0.704              1.641              1.325
 Vibration    12          0.771              1.456              0.939
 Vibration    13          0.778              1.439              0.912
 Vibration    14          0.859              1.241              0.648
 Vibration    15          0.952              1.044              0.460

 Optimization completed.
    -- Stationary point found.
 Normal termination of Gaussian 16 at Tue Jun  1 23:53:25 2021.
