 Gaussian 16, Revision A.03,
 Gaussian 16:  ES64L-G16RevA.03 25-Dec-2016

 -----------------------------
 # opt freq b3lyp/6-31g(2df,p)
 -----------------------------

 -------------------
 Title Card Required
 -------------------
 Symbolic Z-matrix:
 Charge =  0 Multiplicity = 1

 SCF Done:  E(RB3LYP) =  -403.087700628     A.U. after   12 cycles
 SCF Done:  E(RB3LYP) =  -403.095806552     A.U. after   11 cycles
 SCF Done:  E(RB3LYP) =  -403.097444469     A.U. after   11 cycles
 SCF Done:  E(RB3LYP) =  -403.098321195     A.U. after   11 cycles
 SCF Done:  E(RB3LYP) =  -403.099812325     A.U. after   12 cycles
 SCF Done:  E(RB3LYP) =  -403.079909744     A.U. after   11 cycles
 SCF Done:  E(RB3LYP) =  -403.102791264     A.U. after   11 cycles
 SCF Done:  E(RB3LYP) =  -403.103512717     A.U. after   11 cycles
 SCF Done:  E(RB3LYP) =  -403.103804383     A.U. after   10 cycles
 SCF Done:  E(RB3LYP) =  -403.104044525     A.U. after   10 cycles
 SCF Done:  E(RB3LYP) =  -403.109702830     A.U. after   10 cycles
 SCF Done:  E(RB3LYP) =  -403.109790501     A.U. after    9 cycles
 SCF Done:  E(RB3LYP) =  -403.109843907     A.U. after    9 cycles
 SCF Done:  E(RB3LYP) =  -403.109856923     A.U. after    8 cycles
 SCF Done:  E(RB3LYP) =  -403.109860943     A.U. after    7 cycles
 SCF Done:  E(RB3LYP) =  -403.109861864     A.U. after    7 cycles
 SCF Done:  E(RB3LYP) =  -403.109862209     A.U. after    6 cycles
 SCF Done:  E(RB3LYP) =  -403.109862293     A.U. after    6 cycles
 SCF Done:  E(RB3LYP) =  -403.109862335     A.U. after    6 cycles
 Optimization completed.
    -- Stationary point found.
 Normal termination of Gaussian 16 at Mon May 31 22:47:12 2021.

 ----------------------------------------------------------------------
 #N Geom=AllCheck Guess=TCheck SCRF=Check GenChk RB3LYP/6-31G(2df,p) Fr
 eq
 ----------------------------------------------------------------------

 Structure from the checkpoint file:  "CCCNpCpNCNC.chk"
 -------------------
 Title Card Required
 -------------------
 Charge =  0 Multiplicity = 1

                         Standard orientation:
 ---------------------------------------------------------------------
 Center     Atomic      Atomic             Coordinates (Angstroms)
 Number     Number       Type             X           Y           Z
 ---------------------------------------------------------------------
      1          6           0        3.031223   -1.794040   -0.189634
      2          6           0        2.268982   -0.639262    0.467820
      3          6           0        1.194360   -0.062002   -0.457946
      4          7           0        0.352879    0.958919    0.177879
      5          6           0        1.073429    2.201638    0.435497
      6          7           0       -0.805088    1.262182   -0.612320
      7          6           0       -1.999244    0.623055   -0.103254
      8          7           0       -1.944194   -0.840251   -0.052174
      9          6           0       -3.229996   -1.437699    0.291385
     10          1           0        3.797693   -2.194350    0.480649
     11          1           0        3.531258   -1.468213   -1.108453
     12          1           0        2.357106   -2.615941   -0.454785
     13          1           0        2.980405    0.141593    0.758794
     14          1           0        1.787547   -0.980720    1.392112
     15          1           0        0.528494   -0.867749   -0.780496
     16          1           0        1.677141    0.341237   -1.372543
     17          1           0        1.880707    2.024660    1.151735
     18          1           0        0.381160    2.927237    0.865262
     19          1           0        1.509012    2.639638   -0.480775
     20          1           0       -0.646558    0.987878   -1.581299
     21          1           0       -2.822862    0.902309   -0.772520
     22          1           0       -2.212696    1.064885    0.884633
     23          1           0       -1.263885   -1.093026    0.658581
     24          1           0       -3.947960   -1.251539   -0.515785
     25          1           0       -3.676577   -1.052808    1.225953
     26          1           0       -3.117691   -2.521180    0.392033
 ---------------------------------------------------------------------

 SCF Done:  E(RB3LYP) =  -403.109862335     A.U. after    1 cycles

 The electronic state is 1-A.
 Alpha  occ. eigenvalues --  -14.33793 -14.32840 -14.30597 -10.21912 -10.19798
 Alpha  occ. eigenvalues --  -10.19695 -10.18911 -10.17947 -10.17431  -0.97013
 Alpha  occ. eigenvalues --   -0.89103  -0.81161  -0.76547  -0.68935  -0.67353
 Alpha  occ. eigenvalues --   -0.63409  -0.59729  -0.57688  -0.51163  -0.48161
 Alpha  occ. eigenvalues --   -0.46967  -0.45007  -0.44127  -0.42680  -0.41059
 Alpha  occ. eigenvalues --   -0.40333  -0.39333  -0.37847  -0.37410  -0.36723
 Alpha  occ. eigenvalues --   -0.35437  -0.34897  -0.33409  -0.32415  -0.24263
 Alpha  occ. eigenvalues --   -0.22255  -0.20835
 Alpha virt. eigenvalues --    0.08281   0.09907   0.10169   0.12309   0.12632
 Alpha virt. eigenvalues --    0.13528   0.14686   0.15449   0.15804   0.16694
 Alpha virt. eigenvalues --    0.17309   0.18012   0.18201   0.18786   0.19290

 Mulliken charges:
               1
     1  C   -0.379295
     2  C   -0.185885
     3  C   -0.114982
     4  N   -0.084041
     5  C   -0.290437
     6  N   -0.278741
     7  C   -0.079009
     8  N   -0.285150
     9  C   -0.307422
    10  H    0.113783
    11  H    0.116299
    12  H    0.116703
    13  H    0.100672
    14  H    0.100713
    15  H    0.116488
    16  H    0.070154
    17  H    0.112631
    18  H    0.122910
    19  H    0.087946
    20  H    0.207930
    21  H    0.097332
    22  H    0.088384
    23  H    0.222185
    24  H    0.119655
    25  H    0.094336
    26  H    0.116838
 Sum of Mulliken charges =  -0.00000

 Dipole moment (field-independent basis, Debye):
    X=              0.3117    Y=             -0.6072    Z=              0.1864  Tot=              0.7075
 Quadrupole moment (field-independent basis, Debye-Ang):
   XX=            -55.6702   YY=            -60.1735   ZZ=            -57.9508
   XY=              1.1142   XZ=             -0.3154   YZ=             -1.0799

  Exact polarizability: 107.266   1.564  91.950   0.139  -0.198  77.814
 Approx polarizability: 130.894   1.794 121.249   1.003  -0.727 119.512

                      1                      2                      3
                      A                      A                      A
 Frequencies --     50.4145                60.0888                74.4701
 Red. masses --      3.2234                 2.1770                 1.9327
 Frc consts  --      0.0048                 0.0046                 0.0063
 IR Inten    --      0.6880                 0.4498                 0.1160

                      4                      5                      6
                      A                      A                      A
 Frequencies --    105.7940               155.8493               177.6887
 Red. masses --      1.8909                 2.2633                 2.7418
 Frc consts  --      0.0125                 0.0324                 0.0510
 IR Inten    --      2.7963                 0.4718                 1.0659

                      7                      8                      9
                      A                      A                      A
 Frequencies --    222.2986               226.0064               241.1997
 Red. masses --      1.2668                 1.2886                 1.1727
 Frc consts  --      0.0369                 0.0388                 0.0402
 IR Inten    --      0.8706                 0.6749                 0.2937

                     10                     11                     12
                      A                      A                      A
 Frequencies --    282.1154               302.5580               339.8531
 Red. masses --      1.9016                 2.2465                 2.5664
 Frc consts  --      0.0892                 0.1212                 0.1746
 IR Inten    --      4.1311                 3.3768                 0.5852

                     13                     14                     15
                      A                      A                      A
 Frequencies --    383.8173               443.5957               478.2989
 Red. masses --      2.7680                 2.9030                 2.5671
 Frc consts  --      0.2403                 0.3366                 0.3460
 IR Inten    --      1.6000                 0.9716                10.7402

                     16                     17                     18
                      A                      A                      A
 Frequencies --    601.6796               732.9893               762.7492
 Red. masses --      2.7045                 2.4109                 1.1148
 Frc consts  --      0.5769                 0.7632                 0.3821
 IR Inten    --      4.7271                34.5920                 0.6396

                     19                     20                     21
                      A                      A                      A
 Frequencies --    843.1831               863.4334               897.7433
 Red. masses --      1.2961                 2.1858                 1.2798
 Frc consts  --      0.5429                 0.9601                 0.6077
 IR Inten    --     89.2308                65.0767                 2.4712

                     22                     23                     24
                      A                      A                      A
 Frequencies --    913.9708               976.9744               994.2223
 Red. masses --      1.6630                 2.0046                 1.9398
 Frc consts  --      0.8185                 1.1273                 1.1297
 IR Inten    --      4.2805                37.3838                10.0560

                     25                     26                     27
                      A                      A                      A
 Frequencies --   1042.2329              1066.8145              1098.1201
 Red. masses --      2.4709                 1.8463                 1.7337
 Frc consts  --      1.5813                 1.2381                 1.2318
 IR Inten    --      3.5185                18.7763                 2.4656

                     28                     29                     30
                      A                      A                      A
 Frequencies --   1109.9790              1129.8243              1140.8284
 Red. masses --      3.2480                 1.4372                 3.5719
 Frc consts  --      2.3577                 1.0809                 2.7390
 IR Inten    --     17.1962                 2.2131                62.7807

                     31                     32                     33
                      A                      A                      A
 Frequencies --   1155.7982              1181.8125              1220.3212
 Red. masses --      1.7295                 1.7771                 2.3994
 Frc consts  --      1.3612                 1.4623                 2.1052
 IR Inten    --     22.4495                 4.8389                 1.7766

                     34                     35                     36
                      A                      A                      A
 Frequencies --   1233.4393              1240.1598              1289.7029
 Red. masses --      1.8735                 2.2544                 1.3064
 Frc consts  --      1.6794                 2.0429                 1.2803
 IR Inten    --      0.6766                 2.8730                 3.5376

                     37                     38                     39
                      A                      A                      A
 Frequencies --   1321.6109              1335.1505              1343.2447
 Red. masses --      1.2017                 1.1285                 1.3897
 Frc consts  --      1.2366                 1.1852                 1.4773
 IR Inten    --      6.3920                 9.1947                 1.7631

                     40                     41                     42
                      A                      A                      A
 Frequencies --   1396.9411              1408.5756              1416.4296
 Red. masses --      1.2666                 1.3278                 1.2672
 Frc consts  --      1.4563                 1.5522                 1.4979
 IR Inten    --     20.5113                 5.0751                 6.2908

                     43                     44                     45
                      A                      A                      A
 Frequencies --   1446.8929              1457.1602              1472.8515
 Red. masses --      1.1700                 1.1651                 1.2067
 Frc consts  --      1.4432                 1.4575                 1.5424
 IR Inten    --      1.5274                 5.1573                33.5747

                     46                     47                     48
                      A                      A                      A
 Frequencies --   1485.5260              1487.5111              1489.5064
 Red. masses --      1.0764                 1.0666                 1.0557
 Frc consts  --      1.3995                 1.3906                 1.3799
 IR Inten    --      4.4115                 4.3640                 2.4529

                     49                     50                     51
                      A                      A                      A
 Frequencies --   1493.5461              1496.9612              1500.2583
 Red. masses --      1.0678                 1.0487                 1.0399
 Frc consts  --      1.4034                 1.3846                 1.3791
 IR Inten    --      9.4565                 3.6056                 4.9876

                     52                     53                     54
                      A                      A                      A
 Frequencies --   1504.1999              1514.5122              1517.0971
 Red. masses --      1.0736                 1.0876                 1.0673
 Frc consts  --      1.4312                 1.4698                 1.4474
 IR Inten    --      0.4443                 6.6740                 3.6431

                     55                     56                     57
                      A                      A                      A
 Frequencies --   1529.0979              2889.1543              2942.5263
 Red. masses --      1.1690                 1.0721                 1.0591
 Frc consts  --      1.6104                 5.2724                 5.4027
 IR Inten    --      9.8708                66.4220                93.5591

                     58                     59                     60
                      A                      A                      A
 Frequencies --   2946.0408              2962.0665              3030.3950
 Red. masses --      1.0587                 1.0689                 1.0401
 Frc consts  --      5.4137                 5.5257                 5.6277
 IR Inten    --     70.6224                83.9641                14.5229

                     61                     62                     63
                      A                      A                      A
 Frequencies --   3032.6664              3047.1674              3052.3959
 Red. masses --      1.0547                 1.0923                 1.0743
 Frc consts  --      5.7153                 5.9756                 5.8975
 IR Inten    --     32.8685                30.4328                46.4900

                     64                     65                     66
                      A                      A                      A
 Frequencies --   3061.3887              3081.9936              3084.1693
 Red. masses --      1.0976                 1.0813                 1.0846
 Frc consts  --      6.0606                 6.0514                 6.0784
 IR Inten    --      7.2079                12.7715                23.9582

                     67                     68                     69
                      A                      A                      A
 Frequencies --   3100.0754              3100.7462              3105.1850
 Red. masses --      1.1014                 1.1007                 1.1006
 Frc consts  --      6.2365                 6.2354                 6.2525
 IR Inten    --     46.2824                37.4183                38.1945

                     70                     71                     72
                      A                      A                      A
 Frequencies --   3133.9195              3444.7186              3509.8192
 Red. masses --      1.1013                 1.0735                 1.0732
 Frc consts  --      6.3726                 7.5049                 7.7892
 IR Inten    --     22.1789                 4.7318                 0.2821

 - Thermochemistry -
 -------------------
 Temperature   298.150 Kelvin.  Pressure   1.00000 Atm.
 Atom     1 has atomic number  6 and mass  12.00000

 Molecular mass:   131.14225 amu.
 Principal axes and moments of inertia in atomic units:
                           1         2         3
     Eigenvalues --   910.905852064.127742760.45325
           X            0.99999   0.00141  -0.00502
           Y           -0.00139   0.99999   0.00316
           Z            0.00502  -0.00315   0.99998
 This molecule is an asymmetric top.
 Rotational symmetry number  1.
 Warning -- assumption of classical behavior for rotation
           may cause significant error
 Rotational temperatures (Kelvin)      0.09509     0.04196     0.03138
 Rotational constants (GHZ):           1.98126     0.87434     0.65378
 Zero-point vibrational energy     629125.3 (Joules/Mol)
                                  150.36454 (Kcal/Mol)
 Warning -- explicit consideration of  16 degrees of freedom as
           vibrations may cause significant error
 Vibrational temperatures:     72.54    86.45   107.15   152.21   224.23
          (Kelvin)            255.65   319.84   325.17   347.03   405.90
                              435.31   488.97   552.23   638.24   688.17
                              865.68  1054.61  1097.43  1213.15  1242.29
                             1291.65  1315.00  1405.65  1430.46  1499.54
                             1534.91  1579.95  1597.01  1625.57  1641.40
                             1662.94  1700.36  1755.77  1774.64  1784.31
                             1855.59  1901.50  1920.98  1932.63  2009.89
                             2026.63  2037.93  2081.76  2096.53  2119.10
                             2137.34  2140.20  2143.07  2148.88  2153.79
                             2158.54  2164.21  2179.05  2182.76  2200.03
                             4156.85  4233.64  4238.70  4261.75  4360.06
                             4363.33  4384.19  4391.72  4404.66  4434.30
                             4437.43  4460.32  4461.28  4467.67  4509.01
                             4956.18  5049.85

 Zero-point correction=                           0.239621 (Hartree/Particle)
 Thermal correction to Energy=                    0.251479
 Thermal correction to Enthalpy=                  0.252423
 Thermal correction to Gibbs Free Energy=         0.201521
 Sum of electronic and zero-point Energies=           -402.870241
 Sum of electronic and thermal Energies=              -402.858383
 Sum of electronic and thermal Enthalpies=            -402.857439
 Sum of electronic and thermal Free Energies=         -402.908342

                     E (Thermal)             CV                S
                      KCal/Mol        Cal/Mol-Kelvin    Cal/Mol-Kelvin
 Total                  157.806             42.114            107.134
 Electronic               0.000              0.000              0.000
 Translational            0.889              2.981             40.526
 Rotational               0.889              2.981             30.030
 Vibrational            156.028             36.152             36.578
 Vibration     1          0.595              1.977              4.801
 Vibration     2          0.597              1.973              4.454
 Vibration     3          0.599              1.966              4.032
 Vibration     4          0.605              1.945              3.345
 Vibration     5          0.620              1.896              2.600
 Vibration     6          0.628              1.870              2.353
 Vibration     7          0.648              1.807              1.940
 Vibration     8          0.650              1.801              1.910
 Vibration     9          0.658              1.777              1.794
 Vibration    10          0.681              1.707              1.521
 Vibration    11          0.694              1.669              1.403
 Vibration    12          0.720              1.596              1.213
 Vibration    13          0.753              1.505              1.024
 Vibration    14          0.803              1.375              0.815
 Vibration    15          0.835              1.298              0.715
 Vibration    16          0.960              1.028              0.447

 Optimization completed.
    -- Stationary point found.
 Normal termination of Gaussian 16 at Mon May 31 23:22:16 2021.
