 Gaussian 16, Revision A.03,
 Gaussian 16:  ES64L-G16RevA.03 25-Dec-2016

 -----------------------------
 # opt freq b3lyp/6-31g(2df,p)
 -----------------------------

 -------------------
 Title Card Required
 -------------------
 Symbolic Z-matrix:
 Charge =  0 Multiplicity = 1

 SCF Done:  E(RB3LYP) =  -385.853969951     A.U. after   12 cycles
 SCF Done:  E(RB3LYP) =  -385.858360262     A.U. after   10 cycles
 SCF Done:  E(RB3LYP) =  -385.859406979     A.U. after   10 cycles
 SCF Done:  E(RB3LYP) =  -385.860104641     A.U. after   10 cycles
 SCF Done:  E(RB3LYP) =  -385.860254542     A.U. after   10 cycles
 SCF Done:  E(RB3LYP) =  -385.860285465     A.U. after    9 cycles
 SCF Done:  E(RB3LYP) =  -385.860288970     A.U. after    8 cycles
 SCF Done:  E(RB3LYP) =  -385.860290690     A.U. after    8 cycles
 SCF Done:  E(RB3LYP) =  -385.860290915     A.U. after    7 cycles
 SCF Done:  E(RB3LYP) =  -385.860290963     A.U. after    6 cycles
 Optimization completed.
    -- Stationary point found.
 Normal termination of Gaussian 16 at Tue Jun  1 13:57:07 2021.

 ----------------------------------------------------------------------
 #N Geom=AllCheck Guess=TCheck SCRF=Check GenChk RB3LYP/6-31G(2df,p) Fr
 eq
 ----------------------------------------------------------------------

 Structure from the checkpoint file:  "CCCNCC1CN1C.chk"
 -------------------
 Title Card Required
 -------------------
 Charge =  0 Multiplicity = 1

                         Standard orientation:
 ---------------------------------------------------------------------
 Center     Atomic      Atomic             Coordinates (Angstroms)
 Number     Number       Type             X           Y           Z
 ---------------------------------------------------------------------
      1          6           0       -4.463587    0.208615   -0.235494
      2          6           0       -3.054851    0.640416    0.178667
      3          6           0       -1.996788   -0.422267   -0.116379
      4          7           0       -0.663585    0.037613    0.253837
      5          6           0        0.377750   -0.961218    0.034627
      6          6           0        1.732475   -0.436650    0.442488
      7          6           0        3.007183   -0.988468   -0.097709
      8          7           0        2.503066    0.307618   -0.542516
      9          6           0        3.216656    1.482011   -0.067577
     10          1           0       -5.199987    0.985126   -0.007669
     11          1           0       -4.770867   -0.704416    0.286528
     12          1           0       -4.515633    0.007050   -1.311165
     13          1           0       -3.043742    0.869346    1.253650
     14          1           0       -2.772598    1.565997   -0.335700
     15          1           0       -1.988716   -0.640130   -1.193311
     16          1           0       -2.277784   -1.370621    0.384792
     17          1           0       -0.667842    0.301833    1.235662
     18          1           0        0.405689   -1.199935   -1.034931
     19          1           0        0.180926   -1.911715    0.570251
     20          1           0        1.787900   -0.073497    1.472594
     21          1           0        2.994353   -1.781496   -0.841433
     22          1           0        3.866946   -1.006080    0.571293
     23          1           0        4.056731    1.693864   -0.737053
     24          1           0        3.614446    1.370585    0.956765
     25          1           0        2.540779    2.342842   -0.081253
 ---------------------------------------------------------------------

 SCF Done:  E(RB3LYP) =  -385.860290963     A.U. after    1 cycles

 The electronic state is 1-A.
 Alpha  occ. eigenvalues --  -14.32168 -14.30517 -10.20848 -10.20326 -10.19925
 Alpha  occ. eigenvalues --  -10.19786 -10.19676 -10.17592 -10.17149  -0.96025
 Alpha  occ. eigenvalues --   -0.89477  -0.77240  -0.73793  -0.69134  -0.63594
 Alpha  occ. eigenvalues --   -0.60123  -0.58750  -0.56810  -0.49184  -0.48199
 Alpha  occ. eigenvalues --   -0.46290  -0.44315  -0.43862  -0.41809  -0.41438
 Alpha  occ. eigenvalues --   -0.39242  -0.38388  -0.37321  -0.35669  -0.34233
 Alpha  occ. eigenvalues --   -0.32946  -0.32652  -0.31246  -0.30423  -0.22783
 Alpha  occ. eigenvalues --   -0.21535
 Alpha virt. eigenvalues --    0.08896   0.09765   0.10231   0.11687   0.13102
 Alpha virt. eigenvalues --    0.13718   0.14233   0.14645   0.15877   0.16320
 Alpha virt. eigenvalues --    0.17104   0.17548   0.17749   0.18091   0.19094

 Mulliken charges:
               1
     1  C   -0.378185
     2  C   -0.181115
     3  C   -0.095906
     4  N   -0.299555
     5  C   -0.138502
     6  C    0.008533
     7  C   -0.257535
     8  N   -0.061656
     9  C   -0.309937
    10  H    0.112707
    11  H    0.113639
    12  H    0.116056
    13  H    0.087509
    14  H    0.109027
    15  H    0.100628
    16  H    0.068416
    17  H    0.204130
    18  H    0.108551
    19  H    0.070744
    20  H    0.070465
    21  H    0.110759
    22  H    0.101755
    23  H    0.120224
    24  H    0.091678
    25  H    0.127571
 Sum of Mulliken charges =  -0.00000

 Dipole moment (field-independent basis, Debye):
    X=              0.0817    Y=             -0.4944    Z=              1.5190  Tot=              1.5995
 Quadrupole moment (field-independent basis, Debye-Ang):
   XX=            -54.5194   YY=            -57.4453   ZZ=            -57.3762
   XY=             -0.1386   XZ=              1.7800   YZ=              1.3610

  Exact polarizability: 114.009  -0.239  86.760  -0.364   1.813  76.705
 Approx polarizability: 128.636  -1.202 124.357  -1.758   1.657 120.323

                      1                      2                      3
                      A                      A                      A
 Frequencies --     45.5612                57.0419                82.9576
 Red. masses --      3.2652                 1.8394                 2.7792
 Frc consts  --      0.0040                 0.0035                 0.0113
 IR Inten    --      0.1819                 0.2895                 0.9744

                      4                      5                      6
                      A                      A                      A
 Frequencies --    124.9016               145.4054               180.7275
 Red. masses --      2.6029                 2.0806                 2.8047
 Frc consts  --      0.0239                 0.0259                 0.0540
 IR Inten    --      0.2806                 1.5822                 0.2371

                      7                      8                      9
                      A                      A                      A
 Frequencies --    230.3405               239.4903               290.4464
 Red. masses --      1.0878                 1.1348                 3.1713
 Frc consts  --      0.0340                 0.0383                 0.1576
 IR Inten    --      0.0541                 0.0640                 1.8706

                     10                     11                     12
                      A                      A                      A
 Frequencies --    313.3317               340.6958               423.1821
 Red. masses --      2.6099                 2.7810                 2.5855
 Frc consts  --      0.1510                 0.1902                 0.2728
 IR Inten    --      3.8010                 0.3764                 1.4240

                     13                     14                     15
                      A                      A                      A
 Frequencies --    474.5534               521.5482               760.3422
 Red. masses --      2.4833                 3.0294                 1.0860
 Frc consts  --      0.3295                 0.4855                 0.3699
 IR Inten    --      1.3010                 2.5171                 1.9460

                     16                     17                     18
                      A                      A                      A
 Frequencies --    773.2533               780.7933               831.6422
 Red. masses --      1.4292                 2.1878                 2.7154
 Frc consts  --      0.5035                 0.7858                 1.1065
 IR Inten    --     62.2734                15.4004                 8.3930

                     19                     20                     21
                      A                      A                      A
 Frequencies --    891.8389               899.4936               918.4843
 Red. masses --      1.4865                 1.5465                 1.5517
 Frc consts  --      0.6966                 0.7372                 0.7713
 IR Inten    --      1.8095                 4.0932                 3.3773

                     22                     23                     24
                      A                      A                      A
 Frequencies --    993.5410              1022.5886              1048.7082
 Red. masses --      1.4507                 2.7751                 1.9137
 Frc consts  --      0.8437                 1.7097                 1.2400
 IR Inten    --      3.6891                 8.1061                 5.0483

                     25                     26                     27
                      A                      A                      A
 Frequencies --   1065.8948              1086.5134              1099.9018
 Red. masses --      2.1888                 1.6762                 1.3770
 Frc consts  --      1.4652                 1.1659                 0.9815
 IR Inten    --      3.8168                 4.5692                11.6072

                     28                     29                     30
                      A                      A                      A
 Frequencies --   1113.1811              1148.4974              1150.4226
 Red. masses --      1.3601                 1.9929                 2.9519
 Frc consts  --      0.9930                 1.5488                 2.3018
 IR Inten    --      5.4283                 4.4347                47.1373

                     31                     32                     33
                      A                      A                      A
 Frequencies --   1153.7923              1174.4992              1212.3858
 Red. masses --      1.8341                 1.5861                 1.8759
 Frc consts  --      1.4385                 1.2891                 1.6246
 IR Inten    --     14.3723                 5.4564                 6.0671

                     34                     35                     36
                      A                      A                      A
 Frequencies --   1223.3926              1253.5791              1292.5221
 Red. masses --      2.0157                 1.3446                 1.7391
 Frc consts  --      1.7775                 1.2449                 1.7118
 IR Inten    --      5.2287                 2.1005                16.2534

                     37                     38                     39
                      A                      A                      A
 Frequencies --   1295.6761              1318.5548              1324.2147
 Red. masses --      1.3319                 1.2245                 1.1240
 Frc consts  --      1.3174                 1.2543                 1.1612
 IR Inten    --      1.2065                17.4719                19.2009

                     40                     41                     42
                      A                      A                      A
 Frequencies --   1362.2207              1410.8553              1415.6423
 Red. masses --      1.4031                 1.3568                 1.3836
 Frc consts  --      1.5340                 1.5912                 1.6336
 IR Inten    --     23.2309                 3.2431                 3.9890

                     43                     44                     45
                      A                      A                      A
 Frequencies --   1445.9432              1459.6653              1489.3882
 Red. masses --      1.3000                 1.4599                 1.0732
 Frc consts  --      1.6014                 1.8327                 1.4026
 IR Inten    --     11.1543                 2.7930                 0.6932

                     46                     47                     48
                      A                      A                      A
 Frequencies --   1492.6968              1494.1744              1494.3538
 Red. masses --      1.0918                 1.1484                 1.0731
 Frc consts  --      1.4333                 1.5105                 1.4118
 IR Inten    --      9.4007                16.3825                12.6190

                     49                     50                     51
                      A                      A                      A
 Frequencies --   1498.1524              1500.8650              1506.3675
 Red. masses --      1.0736                 1.0537                 1.0754
 Frc consts  --      1.4198                 1.3985                 1.4378
 IR Inten    --     10.2398                 8.9654                 2.6505

                     52                     53                     54
                      A                      A                      A
 Frequencies --   1516.4777              1523.7258              2894.5885
 Red. masses --      1.3170                 1.1008                 1.0732
 Frc consts  --      1.7845                 1.5059                 5.2977
 IR Inten    --      5.4037                 2.7469                20.8583

                     55                     56                     57
                      A                      A                      A
 Frequencies --   2900.7955              2946.8881              3008.0516
 Red. masses --      1.0726                 1.0560                 1.0701
 Frc consts  --      5.3175                 5.4032                 5.7047
 IR Inten    --    149.6071                70.6619                 9.4955

                     58                     59                     60
                      A                      A                      A
 Frequencies --   3024.6853              3030.7514              3051.7132
 Red. masses --      1.0765                 1.0386                 1.0841
 Frc consts  --      5.8026                 5.6206                 5.9483
 IR Inten    --     33.1922                41.3277                 2.2784

                     61                     62                     63
                      A                      A                      A
 Frequencies --   3063.0049              3063.5431              3068.0461
 Red. masses --      1.0954                 1.0754                 1.0862
 Frc consts  --      6.0553                 5.9464                 6.0241
 IR Inten    --      6.2737                53.9829                39.6306

                     64                     65                     66
                      A                      A                      A
 Frequencies --   3086.4337              3096.8544              3102.9086
 Red. masses --      1.0534                 1.1020                 1.1032
 Frc consts  --      5.9122                 6.2267                 6.2583
 IR Inten    --     26.6280                53.2179                23.8162

                     67                     68                     69
                      A                      A                      A
 Frequencies --   3103.7957              3172.1168              3488.9764
 Red. masses --      1.1007                 1.1169                 1.0731
 Frc consts  --      6.2474                 6.6216                 7.6961
 IR Inten    --     35.6536                19.8301                 0.9826

 - Thermochemistry -
 -------------------
 Temperature   298.150 Kelvin.  Pressure   1.00000 Atm.
 Atom     1 has atomic number  6 and mass  12.00000

 Molecular mass:   128.13135 amu.
 Principal axes and moments of inertia in atomic units:
                           1         2         3
     Eigenvalues --   387.959333377.187403612.07093
           X            0.99998   0.00338   0.00514
           Y           -0.00352   0.99962   0.02739
           Z           -0.00505  -0.02740   0.99961
 This molecule is an asymmetric top.
 Rotational symmetry number  1.
 Rotational temperatures (Kelvin)      0.22326     0.02565     0.02398
 Rotational constants (GHZ):           4.65188     0.53439     0.49964
 Zero-point vibrational energy     598238.0 (Joules/Mol)
                                  142.98231 (Kcal/Mol)
 Warning -- explicit consideration of  14 degrees of freedom as
           vibrations may cause significant error
 Vibrational temperatures:     65.55    82.07   119.36   179.71   209.21
          (Kelvin)            260.03   331.41   344.57   417.89   450.81
                              490.19   608.86   682.78   750.39  1093.96
                             1112.54  1123.39  1196.55  1283.16  1294.17
                             1321.49  1429.48  1471.28  1508.86  1533.58
                             1563.25  1582.51  1601.62  1652.43  1655.20
                             1660.05  1689.84  1744.35  1760.19  1803.62
                             1859.65  1864.19  1897.11  1905.25  1959.93
                             2029.91  2036.79  2080.39  2100.13  2142.90
                             2147.66  2149.78  2150.04  2155.51  2159.41
                             2167.33  2181.87  2192.30  4164.67  4173.60
                             4239.91  4327.92  4351.85  4360.58  4390.73
                             4406.98  4407.76  4414.23  4440.69  4455.68
                             4464.39  4465.67  4563.97  5019.86

 Zero-point correction=                           0.227857 (Hartree/Particle)
 Thermal correction to Energy=                    0.238959
 Thermal correction to Enthalpy=                  0.239903
 Thermal correction to Gibbs Free Energy=         0.190403
 Sum of electronic and zero-point Energies=           -385.632434
 Sum of electronic and thermal Energies=              -385.621332
 Sum of electronic and thermal Enthalpies=            -385.620388
 Sum of electronic and thermal Free Energies=         -385.669888

                     E (Thermal)             CV                S
                      KCal/Mol        Cal/Mol-Kelvin    Cal/Mol-Kelvin
 Total                  149.949             39.664            104.182
 Electronic               0.000              0.000              0.000
 Translational            0.889              2.981             40.457
 Rotational               0.889              2.981             29.938
 Vibrational            148.172             33.703             33.787
 Vibration     1          0.595              1.979              5.001
 Vibration     2          0.596              1.975              4.557
 Vibration     3          0.600              1.961              3.820
 Vibration     4          0.610              1.928              3.023
 Vibration     5          0.617              1.908              2.731
 Vibration     6          0.630              1.866              2.321
 Vibration     7          0.652              1.795              1.876
 Vibration     8          0.657              1.780              1.807
 Vibration     9          0.686              1.692              1.471
 Vibration    10          0.701              1.648              1.345
 Vibration    11          0.720              1.594              1.209
 Vibration    12          0.785              1.420              0.881
 Vibration    13          0.831              1.307              0.725
 Vibration    14          0.877              1.202              0.606

 Optimization completed.
    -- Stationary point found.
 Normal termination of Gaussian 16 at Tue Jun  1 14:29:11 2021.
