 Gaussian 16, Revision A.03,
 Gaussian 16:  ES64L-G16RevA.03 25-Dec-2016

 -----------------------------
 # opt freq b3lyp/6-31g(2df,p)
 -----------------------------

 -------------------
 Title Card Required
 -------------------
 Symbolic Z-matrix:
 Charge =  0 Multiplicity = 1

 SCF Done:  E(RB3LYP) =  -419.139513088     A.U. after   12 cycles
 SCF Done:  E(RB3LYP) =  -419.147104359     A.U. after   11 cycles
 SCF Done:  E(RB3LYP) =  -419.149089471     A.U. after   10 cycles
 SCF Done:  E(RB3LYP) =  -419.149443823     A.U. after   10 cycles
 SCF Done:  E(RB3LYP) =  -419.149537879     A.U. after    9 cycles
 SCF Done:  E(RB3LYP) =  -419.149557668     A.U. after    8 cycles
 SCF Done:  E(RB3LYP) =  -419.149563653     A.U. after    8 cycles
 SCF Done:  E(RB3LYP) =  -419.149565163     A.U. after    7 cycles
 SCF Done:  E(RB3LYP) =  -419.149565587     A.U. after    7 cycles
 SCF Done:  E(RB3LYP) =  -419.149565669     A.U. after    6 cycles
 Optimization completed.
    -- Stationary point found.
 Normal termination of Gaussian 16 at Mon May 31 15:05:35 2021.

 ----------------------------------------------------------------------
 #N Geom=AllCheck Guess=TCheck SCRF=Check GenChk RB3LYP/6-31G(2df,p) Fr
 eq
 ----------------------------------------------------------------------

 Structure from the checkpoint file:  "CCCNCNpNpCN.chk"
 -------------------
 Title Card Required
 -------------------
 Charge =  0 Multiplicity = 1

                         Standard orientation:
 ---------------------------------------------------------------------
 Center     Atomic      Atomic             Coordinates (Angstroms)
 Number     Number       Type             X           Y           Z
 ---------------------------------------------------------------------
      1          6           0       -4.555539   -0.209466   -0.001414
      2          6           0       -3.202074    0.463402   -0.241464
      3          6           0       -2.019282   -0.441680    0.102280
      4          7           0       -0.750359    0.220813   -0.178997
      5          6           0        0.400621   -0.574084    0.206958
      6          7           0        1.634781    0.061600   -0.243922
      7          7           0        1.710195    1.382572    0.387134
      8          6           0        2.784039   -0.727137    0.167572
      9          7           0        3.999836   -0.098692   -0.332592
     10          1           0       -5.382634    0.462265   -0.250242
     11          1           0       -4.672924   -0.507050    1.046543
     12          1           0       -4.664295   -1.111060   -0.614561
     13          1           0       -3.137283    1.380898    0.359649
     14          1           0       -3.110663    0.774481   -1.288364
     15          1           0       -2.069524   -1.353921   -0.508614
     16          1           0       -2.108107   -0.773048    1.156161
     17          1           0       -0.707393    1.087596    0.350703
     18          1           0        0.332024   -1.549523   -0.290806
     19          1           0        0.431788   -0.755068    1.306293
     20          1           0        1.421225    2.028218   -0.346469
     21          1           0        2.712515    1.554959    0.477339
     22          1           0        2.608398   -1.749267   -0.202404
     23          1           0        2.878035   -0.783208    1.269818
     24          1           0        4.041955   -0.182200   -1.343634
     25          1           0        4.819121   -0.554333    0.053631
 ---------------------------------------------------------------------

 SCF Done:  E(RB3LYP) =  -419.149565669     A.U. after    1 cycles

 The electronic state is 1-A.
 Alpha  occ. eigenvalues --  -14.33326 -14.32149 -14.31692 -14.29900 -10.22980
 Alpha  occ. eigenvalues --  -10.21597 -10.19499 -10.17357 -10.16969  -0.96766
 Alpha  occ. eigenvalues --   -0.89244  -0.86981  -0.78393  -0.75984  -0.67631
 Alpha  occ. eigenvalues --   -0.63002  -0.59068  -0.57735  -0.51147  -0.49665
 Alpha  occ. eigenvalues --   -0.47871  -0.46694  -0.44525  -0.43233  -0.42215
 Alpha  occ. eigenvalues --   -0.40401  -0.39221  -0.38497  -0.37173  -0.35862
 Alpha  occ. eigenvalues --   -0.34376  -0.32529  -0.32420  -0.29497  -0.24920
 Alpha  occ. eigenvalues --   -0.21733  -0.19128
 Alpha virt. eigenvalues --    0.07870   0.09644   0.10700   0.11262   0.12672
 Alpha virt. eigenvalues --    0.13321   0.14290   0.15270   0.15699   0.17233
 Alpha virt. eigenvalues --    0.18067   0.18467   0.18813   0.19984   0.20283

 Mulliken charges:
               1
     1  C   -0.378655
     2  C   -0.180141
     3  C   -0.099367
     4  N   -0.311271
     5  C   -0.039517
     6  N   -0.096329
     7  N   -0.495029
     8  C   -0.090315
     9  N   -0.510988
    10  H    0.112287
    11  H    0.113955
    12  H    0.114242
    13  H    0.091114
    14  H    0.106956
    15  H    0.095551
    16  H    0.071732
    17  H    0.217553
    18  H    0.093664
    19  H    0.055734
    20  H    0.242579
    21  H    0.244893
    22  H    0.092261
    23  H    0.084823
    24  H    0.232916
    25  H    0.231353
 Sum of Mulliken charges =  -0.00000

 Dipole moment (field-independent basis, Debye):
    X=              1.2334    Y=             -1.0183    Z=             -0.0447  Tot=              1.6000
 Quadrupole moment (field-independent basis, Debye-Ang):
   XX=            -48.2314   YY=            -55.1163   ZZ=            -59.4840
   XY=             -4.1561   XZ=             -2.0292   YZ=             -0.3770

  Exact polarizability: 114.505  -0.493  81.583   0.328  -1.398  71.895
 Approx polarizability: 125.638   0.147 121.404   1.506  -1.309 111.438

                      1                      2                      3
                      A                      A                      A
 Frequencies --     41.0887                59.5464                85.1999
 Red. masses --      3.0029                 1.8164                 3.5797
 Frc consts  --      0.0030                 0.0038                 0.0153
 IR Inten    --      3.7819                 1.4832                 0.6240

                      4                      5                      6
                      A                      A                      A
 Frequencies --    117.4593               138.2293               177.2933
 Red. masses --      2.5553                 1.8276                 2.2735
 Frc consts  --      0.0208                 0.0206                 0.0421
 IR Inten    --      9.2662                 4.3533                 3.0990

                      7                      8                      9
                      A                      A                      A
 Frequencies --    213.2243               222.1862               238.9584
 Red. masses --      1.5565                 2.5235                 1.1508
 Frc consts  --      0.0417                 0.0734                 0.0387
 IR Inten    --      5.9849                 2.4876                 0.2057

                     10                     11                     12
                      A                      A                      A
 Frequencies --    287.4271               304.0497               368.8561
 Red. masses --      3.4835                 1.3291                 2.1285
 Frc consts  --      0.1696                 0.0724                 0.1706
 IR Inten    --      1.0214                43.6478                24.2618

                     13                     14                     15
                      A                      A                      A
 Frequencies --    397.0509               430.9276               516.1377
 Red. masses --      3.1818                 2.3337                 3.9410
 Frc consts  --      0.2955                 0.2553                 0.6186
 IR Inten    --      1.3463                11.6303                 3.3928

                     16                     17                     18
                      A                      A                      A
 Frequencies --    613.1535               760.9618               822.0950
 Red. masses --      3.1695                 1.0829                 2.6869
 Frc consts  --      0.7021                 0.3695                 1.0699
 IR Inten    --     18.3224                 1.8102                23.8506

                     19                     20                     21
                      A                      A                      A
 Frequencies --    845.8057               862.1538               898.6885
 Red. masses --      1.2653                 1.4896                 1.2198
 Frc consts  --      0.5333                 0.6524                 0.5804
 IR Inten    --     45.2413               123.0034                 4.9198

                     22                     23                     24
                      A                      A                      A
 Frequencies --    912.3141               988.7763              1029.7305
 Red. masses --      1.6919                 1.8365                 2.6595
 Frc consts  --      0.8297                 1.0579                 1.6615
 IR Inten    --      2.3278                10.9053                17.0130

                     25                     26                     27
                      A                      A                      A
 Frequencies --   1040.7688              1054.8955              1078.8087
 Red. masses --      2.6491                 1.8240                 1.9743
 Frc consts  --      1.6907                 1.1959                 1.3538
 IR Inten    --     11.9383                17.9409                23.5926

                     28                     29                     30
                      A                      A                      A
 Frequencies --   1103.9085              1120.6496              1148.9125
 Red. masses --      2.0777                 2.0982                 1.9519
 Frc consts  --      1.4918                 1.5525                 1.5180
 IR Inten    --     40.1343               106.4329                 7.1435

                     31                     32                     33
                      A                      A                      A
 Frequencies --   1162.6813              1212.5122              1228.5442
 Red. masses --      3.1815                 1.3565                 1.7451
 Frc consts  --      2.5340                 1.1750                 1.5519
 IR Inten    --     44.1572                 7.6863                19.9661

                     34                     35                     36
                      A                      A                      A
 Frequencies --   1235.1001              1266.8848              1303.1411
 Red. masses --      1.8876                 1.3421                 1.2529
 Frc consts  --      1.6965                 1.2691                 1.2535
 IR Inten    --     22.8757                 4.7654                 2.5793

                     37                     38                     39
                      A                      A                      A
 Frequencies --   1324.9359              1331.6232              1341.3861
 Red. masses --      1.1034                 1.2748                 1.2642
 Frc consts  --      1.1413                 1.3318                 1.3402
 IR Inten    --      7.0558                20.2321                 6.9893

                     40                     41                     42
                      A                      A                      A
 Frequencies --   1374.0293              1401.1824              1411.8719
 Red. masses --      1.2486                 1.4752                 1.2404
 Frc consts  --      1.3888                 1.7064                 1.4569
 IR Inten    --     10.2247                20.2026                 1.0783

                     43                     44                     45
                      A                      A                      A
 Frequencies --   1432.7581              1456.3212              1489.8307
 Red. masses --      1.4720                 1.3464                 1.0814
 Frc consts  --      1.7804                 1.6825                 1.4142
 IR Inten    --     41.8011                16.1483                24.9661

                     46                     47                     48
                      A                      A                      A
 Frequencies --   1490.6701              1497.9432              1500.3234
 Red. masses --      1.2011                 1.0984                 1.0442
 Frc consts  --      1.5726                 1.4521                 1.3848
 IR Inten    --     37.8457                 0.3424                 7.0618

                     49                     50                     51
                      A                      A                      A
 Frequencies --   1506.3305              1513.7976              1524.4153
 Red. masses --      1.0758                 1.0879                 1.0942
 Frc consts  --      1.4382                 1.4688                 1.4981
 IR Inten    --      2.5096                 1.4380                 1.9360

                     52                     53                     54
                      A                      A                      A
 Frequencies --   1639.6331              1679.0258              2826.0728
 Red. masses --      1.0989                 1.0668                 1.0712
 Frc consts  --      1.7405                 1.7719                 5.0408
 IR Inten    --     29.7853                28.7596                83.8258

                     55                     56                     57
                      A                      A                      A
 Frequencies --   2901.9681              2913.5550              2983.8906
 Red. masses --      1.0728                 1.0676                 1.0908
 Frc consts  --      5.3230                 5.3398                 5.7220
 IR Inten    --     78.6308                97.5968                49.4979

                     58                     59                     60
                      A                      A                      A
 Frequencies --   3009.6758              3022.1188              3030.0839
 Red. masses --      1.0739                 1.0736                 1.0371
 Frc consts  --      5.7312                 5.7772                 5.6103
 IR Inten    --      3.3768                36.5205                37.8927

                     61                     62                     63
                      A                      A                      A
 Frequencies --   3040.6038              3062.4475              3096.1871
 Red. masses --      1.0848                 1.0970                 1.1021
 Frc consts  --      5.9089                 6.0617                 6.2247
 IR Inten    --     49.7460                13.0026                54.5560

                     64                     65                     66
                      A                      A                      A
 Frequencies --   3103.2976              3438.6989              3498.9809
 Red. masses --      1.1006                 1.0501                 1.0737
 Frc consts  --      6.2450                 7.3162                 7.7448
 IR Inten    --     35.9578                13.5725                 4.7589

                     67                     68                     69
                      A                      A                      A
 Frequencies --   3502.8046              3505.0939              3593.2427
 Red. masses --      1.0587                 1.0797                 1.0929
 Frc consts  --      7.6531                 7.8157                 8.3142
 IR Inten    --      2.9659                 7.6409                 1.8236

 - Thermochemistry -
 -------------------
 Temperature   298.150 Kelvin.  Pressure   1.00000 Atm.
 Atom     1 has atomic number  6 and mass  12.00000

 Molecular mass:   132.13750 amu.
 Principal axes and moments of inertia in atomic units:
                           1         2         3
     Eigenvalues --   293.469673607.246993777.22239
           X            1.00000  -0.00202  -0.00022
           Y            0.00202   0.99967  -0.02563
           Z            0.00027   0.02563   0.99967
 This molecule is an asymmetric top.
 Rotational symmetry number  1.
 Rotational temperatures (Kelvin)      0.29514     0.02401     0.02293
 Rotational constants (GHZ):           6.14967     0.50031     0.47780
 Zero-point vibrational energy     602516.7 (Joules/Mol)
                                  144.00494 (Kcal/Mol)
 Warning -- explicit consideration of  16 degrees of freedom as
           vibrations may cause significant error
 Vibrational temperatures:     59.12    85.67   122.58   169.00   198.88
          (Kelvin)            255.09   306.78   319.68   343.81   413.54
                              437.46   530.70   571.27   620.01   742.61
                              882.19  1094.85  1182.81  1216.93  1240.45
                             1293.01  1312.62  1422.63  1481.55  1497.43
                             1517.76  1552.17  1588.28  1612.36  1653.03
                             1672.84  1744.53  1767.60  1777.03  1822.76
                             1874.93  1906.29  1915.91  1929.96  1976.92
                             2015.99  2031.37  2061.42  2095.32  2143.53
                             2144.74  2155.21  2158.63  2167.27  2178.02
                             2193.29  2359.07  2415.74  4066.09  4175.28
                             4191.96  4293.15  4330.25  4348.15  4359.61
                             4374.75  4406.18  4454.72  4464.95  4947.52
                             5034.25  5039.75  5043.05  5169.87

 Zero-point correction=                           0.229486 (Hartree/Particle)
 Thermal correction to Energy=                    0.241250
 Thermal correction to Enthalpy=                  0.242195
 Thermal correction to Gibbs Free Energy=         0.191458
 Sum of electronic and zero-point Energies=           -418.920079
 Sum of electronic and thermal Energies=              -418.908315
 Sum of electronic and thermal Enthalpies=            -418.907371
 Sum of electronic and thermal Free Energies=         -418.958108

                     E (Thermal)             CV                S
                      KCal/Mol        Cal/Mol-Kelvin    Cal/Mol-Kelvin
 Total                  151.387             41.539            106.784
 Electronic               0.000              0.000              0.000
 Translational            0.889              2.981             40.549
 Rotational               0.889              2.981             29.771
 Vibrational            149.609             35.577             36.465
 Vibration     1          0.594              1.981              5.206
 Vibration     2          0.597              1.974              4.472
 Vibration     3          0.601              1.959              3.767
 Vibration     4          0.608              1.935              3.142
 Vibration     5          0.614              1.915              2.828
 Vibration     6          0.628              1.870              2.357
 Vibration     7          0.644              1.821              2.016
 Vibration     8          0.648              1.807              1.941
 Vibration     9          0.657              1.781              1.811
 Vibration    10          0.685              1.697              1.489
 Vibration    11          0.695              1.666              1.395
 Vibration    12          0.741              1.536              1.085
 Vibration    13          0.764              1.476              0.974
 Vibration    14          0.792              1.403              0.856
 Vibration    15          0.871              1.214              0.619
 Vibration    16          0.972              1.004              0.428

                           ! Non-Optimized Parameters !
 Normal termination of Gaussian 16 at Mon May 31 15:49:47 2021.
