 Gaussian 16, Revision A.03,
 Gaussian 16:  ES64L-G16RevA.03 25-Dec-2016

 -----------------------------
 # opt freq b3lyp/6-31g(2df,p)
 -----------------------------

 -------------------
 Title Card Required
 -------------------
 Symbolic Z-matrix:
 Charge =  0 Multiplicity = 1

 SCF Done:  E(RB3LYP) =  -401.935858756     A.U. after   13 cycles
 SCF Done:  E(RB3LYP) =  -401.940245106     A.U. after   11 cycles
 SCF Done:  E(RB3LYP) =  -401.940799267     A.U. after   10 cycles
 SCF Done:  E(RB3LYP) =  -401.941073777     A.U. after    9 cycles
 SCF Done:  E(RB3LYP) =  -401.941078753     A.U. after    7 cycles
 SCF Done:  E(RB3LYP) =  -401.941079221     A.U. after    6 cycles
 Optimization completed.
    -- Stationary point found.
 Normal termination of Gaussian 16 at Tue Jun  1 20:11:07 2021.

 ----------------------------------------------------------------------
 #N Geom=AllCheck Guess=TCheck SCRF=Check GenChk RB3LYP/6-31G(2df,p) Fr
 eq
 ----------------------------------------------------------------------

 Structure from the checkpoint file:  "CCCNpCpCpdNpNC.chk"
 -------------------
 Title Card Required
 -------------------
 Charge =  0 Multiplicity = 1

                         Standard orientation:
 ---------------------------------------------------------------------
 Center     Atomic      Atomic             Coordinates (Angstroms)
 Number     Number       Type             X           Y           Z
 ---------------------------------------------------------------------
      1          6           0        3.814539   -0.556620    0.000003
      2          6           0        2.602106    0.381204    0.000000
      3          6           0        1.298769   -0.418033    0.000001
      4          7           0        0.057738    0.356486   -0.000003
      5          6           0        0.041888    1.806591   -0.000002
      6          6           0       -1.132037   -0.372124   -0.000002
      7          7           0       -1.237196   -1.655804   -0.000003
      8          7           0       -2.277714    0.396161   -0.000002
      9          6           0       -3.603033   -0.183364    0.000004
     10          1           0        4.748365    0.012486    0.000003
     11          1           0        3.816417   -1.202745   -0.884180
     12          1           0        3.816415   -1.202742    0.884187
     13          1           0        2.650710    1.031702   -0.881352
     14          1           0        2.650709    1.031705    0.881350
     15          1           0        1.307339   -1.079977    0.879368
     16          1           0        1.307341   -1.079981   -0.879363
     17          1           0        1.056716    2.195666   -0.000008
     18          1           0       -0.456755    2.216305    0.890660
     19          1           0       -0.456766    2.216305   -0.890657
     20          1           0       -0.337296   -2.117043   -0.000006
     21          1           0       -2.202898    1.393856    0.000013
     22          1           0       -3.487271   -1.266774   -0.000007
     23          1           0       -4.173115    0.113714   -0.889666
     24          1           0       -4.173099    0.113696    0.889690
 ---------------------------------------------------------------------

 SCF Done:  E(RB3LYP) =  -401.941079221     A.U. after    1 cycles

 The electronic state is 1-A.
 Alpha  occ. eigenvalues --  -14.33889 -14.32448 -14.24816 -10.25429 -10.21885
 Alpha  occ. eigenvalues --  -10.21660 -10.19451 -10.19205 -10.18334  -0.96807
 Alpha  occ. eigenvalues --   -0.89206  -0.82587  -0.78835  -0.71190  -0.69252
 Alpha  occ. eigenvalues --   -0.65382  -0.59684  -0.55866  -0.52831  -0.48546
 Alpha  occ. eigenvalues --   -0.47867  -0.44522  -0.43499  -0.43117  -0.41784
 Alpha  occ. eigenvalues --   -0.41205  -0.39708  -0.39085  -0.36791  -0.36071
 Alpha  occ. eigenvalues --   -0.35225  -0.34488  -0.32927  -0.23626  -0.21885
 Alpha  occ. eigenvalues --   -0.19352
 Alpha virt. eigenvalues --    0.07458   0.08623   0.09356   0.11345   0.12801
 Alpha virt. eigenvalues --    0.12904   0.13887   0.14835   0.15347   0.16520
 Alpha virt. eigenvalues --    0.17011   0.18167   0.18762   0.18902   0.19211

 Mulliken charges:
               1
     1  C   -0.386287
     2  C   -0.220115
     3  C   -0.114191
     4  N   -0.126847
     5  C   -0.359980
     6  C    0.486886
     7  N   -0.609072
     8  N   -0.358330
     9  C   -0.325456
    10  H    0.117446
    11  H    0.122658
    12  H    0.122658
    13  H    0.109167
    14  H    0.109167
    15  H    0.110149
    16  H    0.110149
    17  H    0.134342
    18  H    0.122680
    19  H    0.122681
    20  H    0.201692
    21  H    0.234899
    22  H    0.179148
    23  H    0.108278
    24  H    0.108278
 Sum of Mulliken charges =  -0.00000

 Dipole moment (field-independent basis, Debye):
    X=              1.9951    Y=              3.1645    Z=              0.0000  Tot=              3.7409
 Quadrupole moment (field-independent basis, Debye-Ang):
   XX=            -53.6236   YY=            -57.8787   ZZ=            -58.2768
   XY=             -6.0378   XZ=             -0.0001   YZ=              0.0000

  Exact polarizability: 114.495  -1.956  89.930  -0.000   0.000  64.422
 Approx polarizability: 131.843  -1.637 139.020  -0.000   0.000  98.669

 ******    3 imaginary frequencies (negative Signs) ******

                      1                      2                      3
                      A                      A                      A
 Frequencies --   -236.0382               -92.9802               -51.7813
 Red. masses --      1.3559                 2.1056                 1.2670
 Frc consts  --      0.0445                 0.0107                 0.0020
 IR Inten    --     38.1059                 1.0923                 8.6803

                      4                      5                      6
                      A                      A                      A
 Frequencies --     34.6284                96.7215               140.7403
 Red. masses --      2.4046                 2.0918                 1.7794
 Frc consts  --      0.0017                 0.0115                 0.0208
 IR Inten    --      4.0576                 0.3788                 0.2309

                      7                      8                      9
                      A                      A                      A
 Frequencies --    148.6902               154.8904               245.0281
 Red. masses --      3.1706                 2.3816                 1.1770
 Frc consts  --      0.0413                 0.0337                 0.0416
 IR Inten    --      0.8696                 0.0257                 0.0464

                     10                     11                     12
                      A                      A                      A
 Frequencies --    268.6394               285.0869               341.0369
 Red. masses --      1.2290                 2.9631                 3.8760
 Frc consts  --      0.0523                 0.1419                 0.2656
 IR Inten    --      9.1779                 2.5270                 1.1687

                     13                     14                     15
                      A                      A                      A
 Frequencies --    395.7222               403.8784               545.4454
 Red. masses --      3.4422                 2.9524                 3.7440
 Frc consts  --      0.3176                 0.2837                 0.6563
 IR Inten    --     13.5519                 0.6505                 0.7631

                     16                     17                     18
                      A                      A                      A
 Frequencies --    652.8697               676.5418               728.8653
 Red. masses --      3.4717                 1.1327                 7.1686
 Frc consts  --      0.8719                 0.3055                 2.2438
 IR Inten    --      4.4870                77.7873                 3.1512

                     19                     20                     21
                      A                      A                      A
 Frequencies --    783.2470               830.2094               911.3861
 Red. masses --      1.0845                 3.4217                 2.0779
 Frc consts  --      0.3920                 1.3895                 1.0169
 IR Inten    --      0.1657                 4.7665                 1.0355

                     22                     23                     24
                      A                      A                      A
 Frequencies --    915.5914               979.9451              1041.5323
 Red. masses --      1.1428                 2.1839                 2.3910
 Frc consts  --      0.5644                 1.2356                 1.5282
 IR Inten    --      2.8254                23.4702                25.3684

                     25                     26                     27
                      A                      A                      A
 Frequencies --   1083.4876              1116.5933              1142.0690
 Red. masses --      1.7471                 2.0111                 1.2809
 Frc consts  --      1.2084                 1.4773                 0.9844
 IR Inten    --     97.5369                 0.9451                 0.0613

                     28                     29                     30
                      A                      A                      A
 Frequencies --   1151.1107              1157.5504              1179.4311
 Red. masses --      2.4399                 1.2634                 1.5259
 Frc consts  --      1.9048                 0.9974                 1.2506
 IR Inten    --     67.1738                 0.4382                 0.1383

                     31                     32                     33
                      A                      A                      A
 Frequencies --   1181.4383              1236.7480              1284.8620
 Red. masses --      1.5520                 2.8231                 2.4864
 Frc consts  --      1.2764                 2.5441                 2.4185
 IR Inten    --     16.3242                 3.1751                44.8254

                     34                     35                     36
                      A                      A                      A
 Frequencies --   1286.6597              1334.0246              1349.1434
 Red. masses --      1.2067                 1.0686                 1.6045
 Frc consts  --      1.1770                 1.1205                 1.7207
 IR Inten    --      0.0457                 0.0322                69.6916

                     37                     38                     39
                      A                      A                      A
 Frequencies --   1360.6659              1411.5379              1425.6410
 Red. masses --      2.2494                 1.2851                 1.3659
 Frc consts  --      2.4537                 1.5086                 1.6356
 IR Inten    --    139.2523                 2.4897                10.8828

                     40                     41                     42
                      A                      A                      A
 Frequencies --   1435.3128              1476.9663              1492.7483
 Red. masses --      1.1733                 1.1775                 1.0421
 Frc consts  --      1.4242                 1.5134                 1.3681
 IR Inten    --     27.4988                 1.4825                 2.0238

                     43                     44                     45
                      A                      A                      A
 Frequencies --   1496.2282              1499.8994              1501.9537
 Red. masses --      1.0480                 1.0391                 1.1396
 Frc consts  --      1.3823                 1.3773                 1.5146
 IR Inten    --      1.2453                 5.5340               103.9554

                     46                     47                     48
                      A                      A                      A
 Frequencies --   1503.4019              1509.0835              1533.8540
 Red. masses --      1.0435                 1.0895                 1.0651
 Frc consts  --      1.3897                 1.4618                 1.4764
 IR Inten    --      3.2717                 7.5105                41.7909

                     49                     50                     51
                      A                      A                      A
 Frequencies --   1537.6616              1582.7814              1677.8396
 Red. masses --      1.0852                 1.7734                 6.8947
 Frc consts  --      1.5117                 2.6176                11.4358
 IR Inten    --      9.4866               197.5575               242.7435

                     52                     53                     54
                      A                      A                      A
 Frequencies --   2972.3413              2982.3290              2994.0076
 Red. masses --      1.0539                 1.0462                 1.1039
 Frc consts  --      5.4859                 5.4825                 5.8304
 IR Inten    --     69.6829                28.3881                21.3311

                     55                     56                     57
                      A                      A                      A
 Frequencies --   3006.6075              3015.8738              3026.1296
 Red. masses --      1.0393                 1.1035                 1.0584
 Frc consts  --      5.5356                 5.9134                 5.7104
 IR Inten    --    103.3972                40.1744                26.4393

                     58                     59                     60
                      A                      A                      A
 Frequencies --   3036.0049              3049.0339              3065.2672
 Red. masses --      1.0356                 1.1037                 1.1035
 Frc consts  --      5.6242                 6.0456                 6.1088
 IR Inten    --     30.7175                46.5180                16.3223

                     61                     62                     63
                      A                      A                      A
 Frequencies --   3104.5807              3111.6026              3158.9898
 Red. masses --      1.1027                 1.1011                 1.0939
 Frc consts  --      6.2617                 6.2814                 6.4314
 IR Inten    --     43.3982                28.7539                 1.2190

                     64                     65                     66
                      A                      A                      A
 Frequencies --   3174.1687              3593.7952              3724.3504
 Red. masses --      1.0884                 1.0741                 1.0759
 Frc consts  --      6.4608                 8.1731                 8.7929
 IR Inten    --     11.0843                 2.5998                23.0404

 - Thermochemistry -
 -------------------
 Temperature   298.150 Kelvin.  Pressure   1.00000 Atm.
 Atom     1 has atomic number  6 and mass  12.00000

 Molecular mass:   129.12660 amu.
 Principal axes and moments of inertia in atomic units:
                           1         2         3
     Eigenvalues --   461.580092402.138832807.33480
           X            0.99996  -0.00906  -0.00000
           Y            0.00906   0.99996   0.00000
           Z            0.00000  -0.00000   1.00000
 This molecule is an asymmetric top.
 Rotational symmetry number  1.
 Warning -- assumption of classical behavior for rotation
           may cause significant error
 Rotational temperatures (Kelvin)      0.18765     0.03606     0.03085
 Rotational constants (GHZ):           3.90992     0.75131     0.64287
    3 imaginary frequencies ignored.
 Zero-point vibrational energy     565501.5 (Joules/Mol)
                                  135.15811 (Kcal/Mol)
 Warning -- explicit consideration of  12 degrees of freedom as
           vibrations may cause significant error
 Vibrational temperatures:     49.82   139.16   202.49   213.93   222.85
          (Kelvin)            352.54   386.51   410.18   490.68   569.36
                              581.09   784.77   939.33   973.39  1048.67
                             1126.92  1194.49  1311.28  1317.33  1409.92
                             1498.53  1558.90  1606.53  1643.18  1656.19
                             1665.46  1696.94  1699.83  1779.40  1848.63
                             1851.22  1919.36  1941.12  1957.69  2030.89
                             2051.18  2065.09  2125.03  2147.73  2152.74
                             2158.02  2160.98  2163.06  2171.23  2206.87
                             2212.35  2277.27  2414.04  4276.54  4290.91
                             4307.71  4325.84  4339.17  4353.93  4368.13
                             4386.88  4410.24  4466.80  4476.90  4545.08
                             4566.92  5170.67  5358.51

 Zero-point correction=                           0.215388 (Hartree/Particle)
 Thermal correction to Energy=                    0.225313
 Thermal correction to Enthalpy=                  0.226257
 Thermal correction to Gibbs Free Energy=         0.179579
 Sum of electronic and zero-point Energies=           -401.725691
 Sum of electronic and thermal Energies=              -401.715766
 Sum of electronic and thermal Enthalpies=            -401.714822
 Sum of electronic and thermal Free Energies=         -401.761500

                     E (Thermal)             CV                S
                      KCal/Mol        Cal/Mol-Kelvin    Cal/Mol-Kelvin
 Total                  141.386             35.686             98.242
 Electronic               0.000              0.000              0.000
 Translational            0.889              2.981             40.480
 Rotational               0.889              2.981             29.522
 Vibrational            139.608             29.725             28.240
 Vibration     1          0.594              1.983              5.545
 Vibration     2          0.603              1.952              3.519
 Vibration     3          0.615              1.913              2.794
 Vibration     4          0.618              1.904              2.689
 Vibration     5          0.620              1.897              2.611
 Vibration     6          0.660              1.771              1.766
 Vibration     7          0.673              1.731              1.605
 Vibration     8          0.683              1.701              1.503
 Vibration     9          0.721              1.593              1.207
 Vibration    10          0.762              1.479              0.979
 Vibration    11          0.769              1.462              0.949
 Vibration    12          0.901              1.150              0.554

 Optimization completed.
    -- Stationary point found.
 Normal termination of Gaussian 16 at Tue Jun  1 20:41:22 2021.
