 Gaussian 16, Revision A.03,
 Gaussian 16:  ES64L-G16RevA.03 25-Dec-2016

 -----------------------------
 # opt freq b3lyp/6-31g(2df,p)
 -----------------------------

 -------------------
 Title Card Required
 -------------------
 Symbolic Z-matrix:
 Charge =  0 Multiplicity = 1

 SCF Done:  E(RB3LYP) =  -403.138212894     A.U. after   12 cycles
 SCF Done:  E(RB3LYP) =  -403.142490043     A.U. after   10 cycles
 SCF Done:  E(RB3LYP) =  -403.143006465     A.U. after   10 cycles
 SCF Done:  E(RB3LYP) =  -403.143084990     A.U. after    9 cycles
 SCF Done:  E(RB3LYP) =  -403.143106882     A.U. after    9 cycles
 SCF Done:  E(RB3LYP) =  -403.143111158     A.U. after    8 cycles
 SCF Done:  E(RB3LYP) =  -403.143115427     A.U. after    8 cycles
 SCF Done:  E(RB3LYP) =  -403.143124777     A.U. after    9 cycles
 SCF Done:  E(RB3LYP) =  -403.143138863     A.U. after   10 cycles
 SCF Done:  E(RB3LYP) =  -403.143165120     A.U. after   10 cycles
 SCF Done:  E(RB3LYP) =  -403.149354333     A.U. after   10 cycles
 SCF Done:  E(RB3LYP) =  -403.149860476     A.U. after    9 cycles
 SCF Done:  E(RB3LYP) =  -403.149893927     A.U. after    9 cycles
 SCF Done:  E(RB3LYP) =  -403.149917390     A.U. after    9 cycles
 SCF Done:  E(RB3LYP) =  -403.149926577     A.U. after    8 cycles
 SCF Done:  E(RB3LYP) =  -403.149933941     A.U. after    7 cycles
 SCF Done:  E(RB3LYP) =  -403.149936852     A.U. after    7 cycles
 SCF Done:  E(RB3LYP) =  -403.149937210     A.U. after    7 cycles
 SCF Done:  E(RB3LYP) =  -403.149937251     A.U. after    6 cycles
 Optimization completed.
    -- Stationary point found.
 Normal termination of Gaussian 16 at Tue Jun  1 02:50:51 2021.

 ----------------------------------------------------------------------
 #N Geom=AllCheck Guess=TCheck SCRF=Check GenChk RB3LYP/6-31G(2df,p) Fr
 eq
 ----------------------------------------------------------------------

 Structure from the checkpoint file:  "CCCNCCpNpCN.chk"
 -------------------
 Title Card Required
 -------------------
 Charge =  0 Multiplicity = 1

                         Standard orientation:
 ---------------------------------------------------------------------
 Center     Atomic      Atomic             Coordinates (Angstroms)
 Number     Number       Type             X           Y           Z
 ---------------------------------------------------------------------
      1          6           0       -4.609349   -0.204636    0.024529
      2          6           0       -3.254154    0.439136   -0.277872
      3          6           0       -2.073558   -0.440192    0.133561
      4          7           0       -0.800366    0.187130   -0.205962
      5          6           0        0.364605   -0.580973    0.215470
      6          6           0        1.678326    0.083754   -0.222624
      7          7           0        1.871820    1.453161    0.278713
      8          6           0        2.896224   -0.761848    0.197198
      9          7           0        4.192234   -0.265703   -0.262080
     10          1           0       -5.434570    0.448297   -0.274959
     11          1           0       -4.722065   -0.413700    1.094106
     12          1           0       -4.725345   -1.153297   -0.511142
     13          1           0       -3.182734    1.403624    0.244434
     14          1           0       -3.167842    0.661864   -1.347525
     15          1           0       -2.129542   -1.399229   -0.399489
     16          1           0       -2.155141   -0.684565    1.211389
     17          1           0       -0.763204    1.101590    0.235468
     18          1           0        0.297125   -1.574835   -0.246521
     19          1           0        0.392823   -0.751064    1.311938
     20          1           0        1.667477    0.155772   -1.318139
     21          1           0        1.695375    1.493068    1.279997
     22          1           0        1.228319    2.098092   -0.167214
     23          1           0        2.765876   -1.791281   -0.156502
     24          1           0        2.921141   -0.814639    1.295577
     25          1           0        4.214685    0.734563   -0.072791
     26          1           0        4.239251   -0.347822   -1.274895
 ---------------------------------------------------------------------

 SCF Done:  E(RB3LYP) =  -403.149937251     A.U. after    1 cycles

 The electronic state is 1-A.
 Alpha  occ. eigenvalues --  -14.31374 -14.31058 -14.29272 -10.20416 -10.20170
 Alpha  occ. eigenvalues --  -10.19979 -10.19508 -10.18042 -10.17519  -0.91112
 Alpha  occ. eigenvalues --   -0.88338  -0.85172  -0.77458  -0.72429  -0.66870
 Alpha  occ. eigenvalues --   -0.62280  -0.59083  -0.57651  -0.50722  -0.48647
 Alpha  occ. eigenvalues --   -0.46968  -0.45649  -0.44680  -0.43609  -0.40861
 Alpha  occ. eigenvalues --   -0.40644  -0.39663  -0.37670  -0.36590  -0.35006
 Alpha  occ. eigenvalues --   -0.34953  -0.33766  -0.33117  -0.32695  -0.24533
 Alpha  occ. eigenvalues --   -0.22814  -0.21731
 Alpha virt. eigenvalues --    0.06559   0.09224   0.10072   0.10633   0.12040
 Alpha virt. eigenvalues --    0.12793   0.13603   0.14710   0.16143   0.16874
 Alpha virt. eigenvalues --    0.17168   0.17897   0.18766   0.19320   0.19686

 Mulliken charges:
               1
     1  C   -0.378427
     2  C   -0.181452
     3  C   -0.097989
     4  N   -0.304187
     5  C   -0.132979
     6  C    0.008430
     7  N   -0.517771
     8  C   -0.130913
     9  N   -0.507983
    10  H    0.113920
    11  H    0.114780
    12  H    0.116387
    13  H    0.087845
    14  H    0.107534
    15  H    0.099583
    16  H    0.071029
    17  H    0.194748
    18  H    0.098953
    19  H    0.065877
    20  H    0.079291
    21  H    0.220854
    22  H    0.232937
    23  H    0.097367
    24  H    0.093391
    25  H    0.232251
    26  H    0.216523
 Sum of Mulliken charges =  -0.00000

 Dipole moment (field-independent basis, Debye):
    X=             -2.2299    Y=              0.7325    Z=              0.3091  Tot=              2.3674
 Quadrupole moment (field-independent basis, Debye-Ang):
   XX=            -70.9291   YY=            -56.8019   ZZ=            -56.6493
   XY=              1.2617   XZ=             -3.0605   YZ=              1.9854

  Exact polarizability: 113.111  -0.041  82.668  -1.351   0.249  77.619
 Approx polarizability: 124.547   0.716 122.625  -0.959   1.374 120.583

                      1                      2                      3
                      A                      A                      A
 Frequencies --     45.5962                57.6586                81.2652
 Red. masses --      3.5179                 1.7782                 3.7450
 Frc consts  --      0.0043                 0.0035                 0.0146
 IR Inten    --      0.5792                 1.1123                 0.4111

                      4                      5                      6
                      A                      A                      A
 Frequencies --    117.7983               146.1005               157.8218
 Red. masses --      2.5958                 2.0918                 2.1037
 Frc consts  --      0.0212                 0.0263                 0.0309
 IR Inten    --      0.9199                 3.8792                 3.5417

                      7                      8                      9
                      A                      A                      A
 Frequencies --    204.7572               239.6789               252.0939
 Red. masses --      3.2866                 1.1333                 2.5277
 Frc consts  --      0.0812                 0.0384                 0.0946
 IR Inten    --      3.3187                 0.3004                 3.1895

                     10                     11                     12
                      A                      A                      A
 Frequencies --    292.3151               324.6122               339.1668
 Red. masses --      1.6444                 1.4628                 1.4227
 Frc consts  --      0.0828                 0.0908                 0.0964
 IR Inten    --     11.3792                23.6160                36.8515

                     13                     14                     15
                      A                      A                      A
 Frequencies --    382.5045               447.0271               495.0817
 Red. masses --      2.6988                 2.0150                 3.4536
 Frc consts  --      0.2326                 0.2372                 0.4987
 IR Inten    --      9.0254                 4.4810                 0.9988

                     16                     17                     18
                      A                      A                      A
 Frequencies --    565.6096               760.4057               794.9604
 Red. masses --      2.3880                 1.0831                 1.2866
 Frc consts  --      0.4501                 0.3690                 0.4791
 IR Inten    --     17.1183                 1.4377                79.1353

                     19                     20                     21
                      A                      A                      A
 Frequencies --    833.2405               845.0796               877.4730
 Red. masses --      1.9026                 1.4309                 1.5633
 Frc consts  --      0.7783                 0.6021                 0.7092
 IR Inten    --     95.3277                34.2706                 0.8268

                     22                     23                     24
                      A                      A                      A
 Frequencies --    898.2433               918.7468               938.0468
 Red. masses --      1.2465                 1.7143                 1.5758
 Frc consts  --      0.5926                 0.8526                 0.8170
 IR Inten    --      7.7380                44.5779               194.1358

                     25                     26                     27
                      A                      A                      A
 Frequencies --    996.4936              1020.6244              1050.9527
 Red. masses --      1.7108                 2.8378                 2.7549
 Frc consts  --      1.0009                 1.7416                 1.7928
 IR Inten    --     39.5346                 3.6784                 6.2821

                     28                     29                     30
                      A                      A                      A
 Frequencies --   1074.4940              1091.6946              1113.2985
 Red. masses --      1.6822                 1.5108                 2.1531
 Frc consts  --      1.1443                 1.0608                 1.5723
 IR Inten    --      9.9816                 6.4725                10.4857

                     31                     32                     33
                      A                      A                      A
 Frequencies --   1139.5023              1158.0592              1163.2196
 Red. masses --      1.8209                 3.8171                 2.0440
 Frc consts  --      1.3930                 3.0161                 1.6295
 IR Inten    --      1.4558                58.0241                 9.8384

                     34                     35                     36
                      A                      A                      A
 Frequencies --   1185.0150              1238.6880              1273.7652
 Red. masses --      1.7801                 1.4981                 1.2906
 Frc consts  --      1.4728                 1.3543                 1.2337
 IR Inten    --     15.8877                 9.4465                 8.3642

                     37                     38                     39
                      A                      A                      A
 Frequencies --   1284.7934              1306.4095              1324.4432
 Red. masses --      1.3560                 1.3292                 1.1041
 Frc consts  --      1.3188                 1.3366                 1.1411
 IR Inten    --      6.7017                 1.7805                 6.1740

                     40                     41                     42
                      A                      A                      A
 Frequencies --   1333.9753              1379.0071              1382.1065
 Red. masses --      1.3221                 1.4035                 1.2790
 Frc consts  --      1.3861                 1.5725                 1.4395
 IR Inten    --      4.8618                 2.0302                 2.1295

                     43                     44                     45
                      A                      A                      A
 Frequencies --   1403.9583              1412.1461              1417.1566
 Red. masses --      1.2525                 1.2665                 1.2790
 Frc consts  --      1.4545                 1.4881                 1.5134
 IR Inten    --      9.2493                 0.7072                 7.0525

                     46                     47                     48
                      A                      A                      A
 Frequencies --   1425.5398              1483.0666              1487.7970
 Red. masses --      1.4692                 1.1019                 1.2044
 Frc consts  --      1.7592                 1.4280                 1.5708
 IR Inten    --      1.8702                 1.3721                28.2154

                     49                     50                     51
                      A                      A                      A
 Frequencies --   1490.0008              1500.1584              1500.9314
 Red. masses --      1.0648                 1.0610                 1.0600
 Frc consts  --      1.3928                 1.4068                 1.4069
 IR Inten    --     11.1717                 4.6910                 8.0306

                     52                     53                     54
                      A                      A                      A
 Frequencies --   1506.9898              1523.7237              1648.7438
 Red. masses --      1.0787                 1.0917                 1.0961
 Frc consts  --      1.4433                 1.4934                 1.7556
 IR Inten    --      3.4500                 2.2802                17.2244

                     55                     56                     57
                      A                      A                      A
 Frequencies --   1671.9851              2885.3303              2904.3687
 Red. masses --      1.0833                 1.0722                 1.0730
 Frc consts  --      1.7842                 5.2591                 5.3326
 IR Inten    --     18.4303                55.2331                93.2899

                     58                     59                     60
                      A                      A                      A
 Frequencies --   3000.9639              3008.0245              3024.3204
 Red. masses --      1.0672                 1.0697                 1.0796
 Frc consts  --      5.6624                 5.7025                 5.8181
 IR Inten    --     26.2252                11.2604                15.9389

                     61                     62                     63
                      A                      A                      A
 Frequencies --   3026.6790              3031.3517              3034.6929
 Red. masses --      1.0785                 1.0394                 1.0855
 Frc consts  --      5.8209                 5.6274                 5.8897
 IR Inten    --     40.4195                43.1251                31.1426

                     64                     65                     66
                      A                      A                      A
 Frequencies --   3061.9814              3063.4643              3097.2781
 Red. masses --      1.0962                 1.0970                 1.1020
 Frc consts  --      6.0556                 6.0656                 6.2286
 IR Inten    --     12.7244                52.1080                51.8889

                     67                     68                     69
                      A                      A                      A
 Frequencies --   3104.7447              3469.1060              3478.6921
 Red. masses --      1.1007                 1.0489                 1.0502
 Frc consts  --      6.2514                 7.4376                 7.4875
 IR Inten    --     34.4250                 2.9968                 0.6418

                     70                     71                     72
                      A                      A                      A
 Frequencies --   3496.2960              3542.8332              3574.8006
 Red. masses --      1.0724                 1.0909                 1.0912
 Frc consts  --      7.7234                 8.0675                 8.2158
 IR Inten    --      1.2857                 2.3741                 0.5354

 - Thermochemistry -
 -------------------
 Temperature   298.150 Kelvin.  Pressure   1.00000 Atm.
 Atom     1 has atomic number  6 and mass  12.00000

 Molecular mass:   131.14225 amu.
 Principal axes and moments of inertia in atomic units:
                           1         2         3
     Eigenvalues --   316.244083775.579943955.28333
           X            1.00000   0.00096  -0.00186
           Y           -0.00097   0.99999  -0.00359
           Z            0.00185   0.00359   0.99999
 This molecule is an asymmetric top.
 Rotational symmetry number  1.
 Rotational temperatures (Kelvin)      0.27388     0.02294     0.02190
 Rotational constants (GHZ):           5.70680     0.47800     0.45629
 Zero-point vibrational energy     632878.1 (Joules/Mol)
                                  151.26149 (Kcal/Mol)
 Warning -- explicit consideration of  16 degrees of freedom as
           vibrations may cause significant error
 Vibrational temperatures:     65.60    82.96   116.92   169.49   210.21
          (Kelvin)            227.07   294.60   344.84   362.71   420.58
                              467.04   487.99   550.34   643.17   712.31
                              813.79  1094.05  1143.77  1198.85  1215.88
                             1262.49  1292.37  1321.87  1349.64  1433.73
                             1468.45  1512.09  1545.96  1570.70  1601.79
                             1639.49  1666.19  1673.61  1704.97  1782.20
                             1832.66  1848.53  1879.63  1905.58  1919.29
                             1984.08  1988.54  2019.98  2031.76  2038.97
                             2051.03  2133.80  2140.61  2143.78  2158.39
                             2159.51  2168.22  2192.30  2372.17  2405.61
                             4151.35  4178.74  4317.72  4327.88  4351.32
                             4354.72  4361.44  4366.25  4405.51  4407.64
                             4456.29  4467.04  4991.27  5005.06  5030.39
                             5097.35  5143.34

 Zero-point correction=                           0.241051 (Hartree/Particle)
 Thermal correction to Energy=                    0.252957
 Thermal correction to Enthalpy=                  0.253901
 Thermal correction to Gibbs Free Energy=         0.202943
 Sum of electronic and zero-point Energies=           -402.908887
 Sum of electronic and thermal Energies=              -402.896980
 Sum of electronic and thermal Enthalpies=            -402.896036
 Sum of electronic and thermal Free Energies=         -402.946994

                     E (Thermal)             CV                S
                      KCal/Mol        Cal/Mol-Kelvin    Cal/Mol-Kelvin
 Total                  158.733             42.651            107.251
 Electronic               0.000              0.000              0.000
 Translational            0.889              2.981             40.526
 Rotational               0.889              2.981             29.936
 Vibrational            156.956             36.690             36.789
 Vibration     1          0.595              1.979              5.000
 Vibration     2          0.596              1.974              4.536
 Vibration     3          0.600              1.962              3.860
 Vibration     4          0.608              1.935              3.136
 Vibration     5          0.617              1.907              2.722
 Vibration     6          0.621              1.894              2.576
 Vibration     7          0.640              1.833              2.090
 Vibration     8          0.657              1.780              1.805
 Vibration     9          0.664              1.759              1.716
 Vibration    10          0.688              1.688              1.461
 Vibration    11          0.709              1.626              1.287
 Vibration    12          0.719              1.597              1.216
 Vibration    13          0.752              1.507              1.029
 Vibration    14          0.806              1.367              0.805
 Vibration    15          0.851              1.261              0.671
 Vibration    16          0.921              1.106              0.513

 Optimization completed.
    -- Stationary point found.
 Normal termination of Gaussian 16 at Tue Jun  1 03:25:55 2021.
