 Gaussian 16, Revision A.03,
 Gaussian 16:  ES64L-G16RevA.03 25-Dec-2016

 -----------------------------
 # opt freq b3lyp/6-31g(2df,p)
 -----------------------------

 -------------------
 Title Card Required
 -------------------
 Symbolic Z-matrix:
 Charge =  0 Multiplicity = 1

 SCF Done:  E(RB3LYP) =  -401.857908900     A.U. after   12 cycles
 SCF Done:  E(RB3LYP) =  -401.865886619     A.U. after   11 cycles
 SCF Done:  E(RB3LYP) =  -401.867967954     A.U. after   11 cycles
 SCF Done:  E(RB3LYP) =  -401.870745589     A.U. after   11 cycles
 SCF Done:  E(RB3LYP) =  -401.871675844     A.U. after   11 cycles
 SCF Done:  E(RB3LYP) =  -401.872195018     A.U. after   10 cycles
 SCF Done:  E(RB3LYP) =  -401.872246436     A.U. after   10 cycles
 SCF Done:  E(RB3LYP) =  -401.872259318     A.U. after    8 cycles
 SCF Done:  E(RB3LYP) =  -401.872263965     A.U. after    8 cycles
 SCF Done:  E(RB3LYP) =  -401.872264484     A.U. after    7 cycles
 SCF Done:  E(RB3LYP) =  -401.872264719     A.U. after    7 cycles
 Optimization completed.
    -- Stationary point found.
 Normal termination of Gaussian 16 at Tue Jun  1 04:38:39 2021.

 ----------------------------------------------------------------------
 #N Geom=AllCheck Guess=TCheck SCRF=Check GenChk RB3LYP/6-31G(2df,p) Fr
 eq
 ----------------------------------------------------------------------

 Structure from the checkpoint file:  "CCCNCC1CN1N.chk"
 -------------------
 Title Card Required
 -------------------
 Charge =  0 Multiplicity = 1

                         Standard orientation:
 ---------------------------------------------------------------------
 Center     Atomic      Atomic             Coordinates (Angstroms)
 Number     Number       Type             X           Y           Z
 ---------------------------------------------------------------------
      1          6           0        4.309551   -0.384125    0.101889
      2          6           0        2.843185   -0.652537   -0.244502
      3          6           0        1.907216    0.459805    0.227893
      4          7           0        0.527694    0.184924   -0.146689
      5          6           0       -0.417140    1.189917    0.309338
      6          6           0       -1.842141    0.789747   -0.013193
      7          6           0       -2.218449   -0.007350   -1.218069
      8          7           0       -2.187145   -0.615948    0.125150
      9          7           0       -3.437414   -0.855756    0.781575
     10          1           0        4.954486   -1.197953   -0.243011
     11          1           0        4.451867   -0.283047    1.183567
     12          1           0        4.664388    0.541344   -0.365315
     13          1           0        2.527025   -1.602189    0.208660
     14          1           0        2.722975   -0.773926   -1.327155
     15          1           0        2.204633    1.409566   -0.239002
     16          1           0        2.031532    0.605520    1.319696
     17          1           0        0.233120   -0.712502    0.229105
     18          1           0       -0.192344    2.141858   -0.192395
     19          1           0       -0.347832    1.387357    1.397649
     20          1           0       -2.595038    1.493130    0.341824
     21          1           0       -1.450856   -0.352258   -1.902850
     22          1           0       -3.198451    0.179133   -1.654598
     23          1           0       -3.631997   -1.845347    0.647983
     24          1           0       -4.188789   -0.355965    0.295467
 ---------------------------------------------------------------------

 SCF Done:  E(RB3LYP) =  -401.872264719     A.U. after    1 cycles

 The electronic state is 1-A.
 Alpha  occ. eigenvalues --  -14.35195 -14.33849 -14.30101 -10.21028 -10.20204
 Alpha  occ. eigenvalues --  -10.20096 -10.19526 -10.17391 -10.17004  -0.99293
 Alpha  occ. eigenvalues --   -0.89558  -0.83785  -0.76813  -0.70004  -0.64197
 Alpha  occ. eigenvalues --   -0.62403  -0.58317  -0.56648  -0.51239  -0.49562
 Alpha  occ. eigenvalues --   -0.47492  -0.45170  -0.43659  -0.42841  -0.41751
 Alpha  occ. eigenvalues --   -0.38835  -0.37853  -0.37148  -0.35633  -0.34209
 Alpha  occ. eigenvalues --   -0.32942  -0.32286  -0.31819  -0.24859  -0.23397
 Alpha  occ. eigenvalues --   -0.21201
 Alpha virt. eigenvalues --    0.08133   0.09661   0.10312   0.11501   0.12136
 Alpha virt. eigenvalues --    0.13362   0.13977   0.14905   0.15563   0.16378
 Alpha virt. eigenvalues --    0.17190   0.17337   0.18157   0.19400   0.19969

 Mulliken charges:
               1
     1  C   -0.378149
     2  C   -0.181005
     3  C   -0.093277
     4  N   -0.304817
     5  C   -0.158133
     6  C    0.029973
     7  C   -0.241793
     8  N   -0.106514
     9  N   -0.447830
    10  H    0.112285
    11  H    0.114413
    12  H    0.114070
    13  H    0.092674
    14  H    0.104597
    15  H    0.094100
    16  H    0.070969
    17  H    0.226341
    18  H    0.099718
    19  H    0.081358
    20  H    0.083645
    21  H    0.130703
    22  H    0.098845
    23  H    0.242623
    24  H    0.215205
 Sum of Mulliken charges =  -0.00000

 Dipole moment (field-independent basis, Debye):
    X=             -0.9328    Y=              0.2543    Z=             -0.7817  Tot=              1.2433
 Quadrupole moment (field-independent basis, Debye-Ang):
   XX=            -49.4742   YY=            -54.6817   ZZ=            -59.9123
   XY=              0.3400   XZ=              4.4676   YZ=              0.4466

  Exact polarizability: 110.466   2.521  79.840   0.085   1.256  76.962
 Approx polarizability: 125.338   3.524 119.946  -0.541   0.503 118.008

                      1                      2                      3
                      A                      A                      A
 Frequencies --     51.6413                69.4304                94.5004
 Red. masses --      3.3321                 1.8377                 2.8670
 Frc consts  --      0.0052                 0.0052                 0.0151
 IR Inten    --      1.7699                 0.0469                 1.4692

                      4                      5                      6
                      A                      A                      A
 Frequencies --    126.0591               173.9502               201.8029
 Red. masses --      2.7782                 2.2181                 2.5088
 Frc consts  --      0.0260                 0.0395                 0.0602
 IR Inten    --      5.0058                 1.5655                 6.1122

                      7                      8                      9
                      A                      A                      A
 Frequencies --    227.7105               239.0529               263.0198
 Red. masses --      1.2524                 1.1480                 2.6686
 Frc consts  --      0.0383                 0.0387                 0.1088
 IR Inten    --     28.7535                 0.2384                 4.2459

                     10                     11                     12
                      A                      A                      A
 Frequencies --    349.0040               373.7063               428.4791
 Red. masses --      3.0797                 3.1381                 3.2880
 Frc consts  --      0.2210                 0.2582                 0.3557
 IR Inten    --      1.3331                 0.7384                 0.6056

                     13                     14                     15
                      A                      A                      A
 Frequencies --    475.7499               605.0005               755.2589
 Red. masses --      2.3130                 2.7969                 3.2799
 Frc consts  --      0.3085                 0.6032                 1.1023
 IR Inten    --      2.9672                 0.4093                25.1542

                     16                     17                     18
                      A                      A                      A
 Frequencies --    760.6469               781.8570               832.4212
 Red. masses --      1.1758                 1.9298                 1.3179
 Frc consts  --      0.4008                 0.6951                 0.5380
 IR Inten    --      0.3082                22.4739                49.9653

                     19                     20                     21
                      A                      A                      A
 Frequencies --    896.0643               904.4428               921.1692
 Red. masses --      1.4353                 1.8649                 1.9925
 Frc consts  --      0.6790                 0.8988                 0.9961
 IR Inten    --      5.3489                 1.2646                 3.5945

                     22                     23                     24
                      A                      A                      A
 Frequencies --    958.7872              1000.4125              1037.1424
 Red. masses --      1.7564                 1.5569                 1.8357
 Frc consts  --      0.9513                 0.9180                 1.1634
 IR Inten    --      4.0739                48.2824                 5.4914

                     25                     26                     27
                      A                      A                      A
 Frequencies --   1047.9624              1075.2234              1085.8004
 Red. masses --      2.2745                 1.6546                 1.8859
 Frc consts  --      1.4717                 1.1270                 1.3100
 IR Inten    --      4.4070                 7.5882                12.1719

                     28                     29                     30
                      A                      A                      A
 Frequencies --   1105.8333              1115.2639              1151.8338
 Red. masses --      1.3887                 1.3025                 2.1818
 Frc consts  --      1.0006                 0.9545                 1.7055
 IR Inten    --      5.5018                13.7568                 3.9836

                     31                     32                     33
                      A                      A                      A
 Frequencies --   1165.5319              1181.7683              1209.1184
 Red. masses --      3.0863                 1.5965                 2.1091
 Frc consts  --      2.4702                 1.3136                 1.8167
 IR Inten    --     22.2115                35.7630                 9.8693

                     34                     35                     36
                      A                      A                      A
 Frequencies --   1248.5231              1260.9633              1292.2712
 Red. masses --      1.3632                 1.5936                 1.2747
 Frc consts  --      1.2520                 1.4929                 1.2542
 IR Inten    --      5.8813                 1.2278                 4.5979

                     37                     38                     39
                      A                      A                      A
 Frequencies --   1319.0689              1324.7443              1351.7249
 Red. masses --      1.2350                 1.1663                 1.3783
 Frc consts  --      1.2660                 1.2059                 1.4838
 IR Inten    --      6.5945                12.8191                 7.9125

                     40                     41                     42
                      A                      A                      A
 Frequencies --   1379.3263              1411.3533              1426.2095
 Red. masses --      1.4778                 1.2716                 1.4312
 Frc consts  --      1.6566                 1.4923                 1.7152
 IR Inten    --      3.3108                 0.8739                 7.3010

                     43                     44                     45
                      A                      A                      A
 Frequencies --   1427.0770              1486.5819              1490.2030
 Red. masses --      1.6525                 1.3617                 1.0740
 Frc consts  --      1.9828                 1.7730                 1.4053
 IR Inten    --      8.5594                 5.8995                 0.2979

                     46                     47                     48
                      A                      A                      A
 Frequencies --   1493.8180              1500.3519              1503.1835
 Red. masses --      1.2265                 1.0517                 1.0725
 Frc consts  --      1.6126                 1.3948                 1.4278
 IR Inten    --     71.4142                 7.1510                 8.7261

                     49                     50                     51
                      A                      A                      A
 Frequencies --   1509.2111              1525.3740              1660.2862
 Red. masses --      1.0833                 1.0931                 1.0752
 Frc consts  --      1.4537                 1.4985                 1.7463
 IR Inten    --     11.1126                 1.0898                19.0402

                     52                     53                     54
                      A                      A                      A
 Frequencies --   2898.6095              2904.5954              3008.8246
 Red. masses --      1.0730                 1.0731                 1.0770
 Frc consts  --      5.3115                 5.3343                 5.7445
 IR Inten    --     22.0971               139.8954                 1.8234

                     55                     56                     57
                      A                      A                      A
 Frequencies --   3016.6443              3021.3213              3030.1438
 Red. masses --      1.0838                 1.0712                 1.0366
 Frc consts  --      5.8109                 5.7611                 5.6080
 IR Inten    --     21.2457                60.5471                41.2945

                     58                     59                     60
                      A                      A                      A
 Frequencies --   3061.5052              3096.1517              3096.2103
 Red. masses --      1.0974                 1.1001                 1.0566
 Frc consts  --      6.0603                 6.2134                 5.9679
 IR Inten    --     13.5346                44.2149                28.9494

                     61                     62                     63
                      A                      A                      A
 Frequencies --   3103.3586              3113.4069              3203.9995
 Red. masses --      1.1006                 1.0871                 1.1149
 Frc consts  --      6.2454                 6.2083                 6.7430
 IR Inten    --     35.4783                24.3710                10.5338

                     64                     65                     66
                      A                      A                      A
 Frequencies --   3369.3738              3504.5568              3520.1479
 Red. masses --      1.0561                 1.0730                 1.0842
 Frc consts  --      7.0640                 7.7646                 7.9154
 IR Inten    --     20.6632                 6.2768                 0.3244

 - Thermochemistry -
 -------------------
 Temperature   298.150 Kelvin.  Pressure   1.00000 Atm.
 Atom     1 has atomic number  6 and mass  12.00000

 Molecular mass:   129.12660 amu.
 Principal axes and moments of inertia in atomic units:
                           1         2         3
     Eigenvalues --   407.629413160.216873255.90670
           X            0.99997  -0.00460   0.00543
           Y            0.00422   0.99765   0.06839
           Z           -0.00573  -0.06836   0.99764
 This molecule is an asymmetric top.
 Rotational symmetry number  1.
 Rotational temperatures (Kelvin)      0.21248     0.02741     0.02660
 Rotational constants (GHZ):           4.42741     0.57108     0.55430
 Zero-point vibrational energy     569570.6 (Joules/Mol)
                                  136.13064 (Kcal/Mol)
 Warning -- explicit consideration of  14 degrees of freedom as
           vibrations may cause significant error
 Vibrational temperatures:     74.30    99.89   135.97   181.37   250.28
          (Kelvin)            290.35   327.62   343.94   378.43   502.14
                              537.68   616.49   684.50   870.46  1086.65
                             1094.40  1124.92  1197.67  1289.24  1301.29
                             1325.36  1379.48  1439.37  1492.22  1507.78
                             1547.01  1562.22  1591.05  1604.62  1657.23
                             1676.94  1700.30  1739.65  1796.35  1814.24
                             1859.29  1897.85  1906.01  1944.83  1984.54
                             2030.62  2052.00  2053.25  2138.86  2144.07
                             2149.27  2158.67  2162.75  2171.42  2194.67
                             2388.78  4170.45  4179.06  4329.03  4340.28
                             4347.01  4359.70  4404.82  4454.67  4454.76
                             4465.04  4479.50  4609.84  4847.78  5042.28
                             5064.71

 Zero-point correction=                           0.216938 (Hartree/Particle)
 Thermal correction to Energy=                    0.227804
 Thermal correction to Enthalpy=                  0.228748
 Thermal correction to Gibbs Free Energy=         0.180126
 Sum of electronic and zero-point Energies=           -401.655327
 Sum of electronic and thermal Energies=              -401.644461
 Sum of electronic and thermal Enthalpies=            -401.643517
 Sum of electronic and thermal Free Energies=         -401.692138

                     E (Thermal)             CV                S
                      KCal/Mol        Cal/Mol-Kelvin    Cal/Mol-Kelvin
 Total                  142.949             39.210            102.333
 Electronic               0.000              0.000              0.000
 Translational            0.889              2.981             40.480
 Rotational               0.889              2.981             29.818
 Vibrational            141.171             33.248             32.034
 Vibration     1          0.596              1.977              4.754
 Vibration     2          0.598              1.969              4.169
 Vibration     3          0.603              1.953              3.565
 Vibration     4          0.611              1.927              3.005
 Vibration     5          0.627              1.875              2.392
 Vibration     6          0.639              1.837              2.117
 Vibration     7          0.651              1.799              1.897
 Vibration     8          0.657              1.781              1.810
 Vibration     9          0.670              1.741              1.642
 Vibration    10          0.726              1.577              1.171
 Vibration    11          0.745              1.526              1.065
 Vibration    12          0.790              1.408              0.864
 Vibration    13          0.832              1.304              0.722
 Vibration    14          0.964              1.021              0.441

 Optimization completed.
    -- Stationary point found.
 Normal termination of Gaussian 16 at Tue Jun  1 05:13:55 2021.
