 Gaussian 16, Revision A.03,
 Gaussian 16:  ES64L-G16RevA.03 25-Dec-2016

 -----------------------------
 # opt freq b3lyp/6-31g(2df,p)
 -----------------------------

 -------------------
 Title Card Required
 -------------------
 Symbolic Z-matrix:
 Charge =  0 Multiplicity = 1

 SCF Done:  E(RB3LYP) =  -557.970497782     A.U. after   13 cycles
 SCF Done:  E(RB3LYP) =  -557.977852856     A.U. after   13 cycles
 SCF Done:  E(RB3LYP) =  -557.980244935     A.U. after   12 cycles
 SCF Done:  E(RB3LYP) =  -557.981952678     A.U. after   11 cycles
 SCF Done:  E(RB3LYP) =  -557.982731857     A.U. after   11 cycles
 SCF Done:  E(RB3LYP) =  -557.982890595     A.U. after   11 cycles
 SCF Done:  E(RB3LYP) =  -557.983032731     A.U. after   10 cycles
 SCF Done:  E(RB3LYP) =  -557.983060346     A.U. after    9 cycles
 SCF Done:  E(RB3LYP) =  -557.983068024     A.U. after    9 cycles
 SCF Done:  E(RB3LYP) =  -557.983073993     A.U. after    9 cycles
 SCF Done:  E(RB3LYP) =  -557.983076328     A.U. after    8 cycles
 SCF Done:  E(RB3LYP) =  -557.983076826     A.U. after    8 cycles
 SCF Done:  E(RB3LYP) =  -557.983076893     A.U. after    7 cycles
 SCF Done:  E(RB3LYP) =  -557.983076921     A.U. after    7 cycles
 Optimization completed.
    -- Stationary point found.
 Normal termination of Gaussian 16 at Mon May 31 20:17:55 2021.

 ----------------------------------------------------------------------
 #N Geom=AllCheck Guess=TCheck SCRF=Check GenChk RB3LYP/6-31G(2df,p) Fr
 eq
 ----------------------------------------------------------------------

 Structure from the checkpoint file:  "CCCNCCpCCtNpCNCC.chk"
 -------------------
 Title Card Required
 -------------------
 Charge =  0 Multiplicity = 1

                         Standard orientation:
 ---------------------------------------------------------------------
 Center     Atomic      Atomic             Coordinates (Angstroms)
 Number     Number       Type             X           Y           Z
 ---------------------------------------------------------------------
      1          6           0       -5.530336   -1.133035   -0.096375
      2          6           0       -4.226205   -0.523896   -0.616505
      3          6           0       -3.029589   -0.825964    0.285217
      4          7           0       -1.801253   -0.257815   -0.258684
      5          6           0       -0.634301   -0.503416    0.576499
      6          6           0        0.655978    0.096764   -0.013697
      7          6           0        0.881735    1.575376    0.390305
      8          6           0       -0.217261    2.472573    0.043004
      9          7           0       -1.094312    3.174603   -0.231416
     10          6           0        1.871309   -0.747890    0.409365
     11          7           0        3.139235   -0.219080   -0.083902
     12          6           0        4.229497   -1.194770   -0.072356
     13          6           0        5.535479   -0.556052   -0.534414
     14          1           0       -6.369175   -0.897204   -0.758002
     15          1           0       -5.777661   -0.753660    0.901318
     16          1           0       -5.459132   -2.224326   -0.026535
     17          1           0       -4.339709    0.564768   -0.706705
     18          1           0       -4.006847   -0.895214   -1.624050
     19          1           0       -2.893969   -1.914323    0.362571
     20          1           0       -3.245517   -0.471225    1.312685
     21          1           0       -1.930280    0.740571   -0.392088
     22          1           0       -0.510573   -1.592592    0.649462
     23          1           0       -0.759395   -0.147843    1.619975
     24          1           0        0.578166    0.054612   -1.104959
     25          1           0        1.784502    1.948580   -0.104383
     26          1           0        1.045329    1.646357    1.473805
     27          1           0        1.740833   -1.746932   -0.021536
     28          1           0        1.859325   -0.884538    1.508289
     29          1           0        3.423617    0.573570    0.483697
     30          1           0        3.953979   -2.008961   -0.754483
     31          1           0        4.374419   -1.658237    0.921519
     32          1           0        5.419651   -0.120367   -1.530867
     33          1           0        6.339582   -1.296830   -0.567160
     34          1           0        5.849330    0.241686    0.149200
 ---------------------------------------------------------------------

 SCF Done:  E(RB3LYP) =  -557.983076921     A.U. after    1 cycles

 The electronic state is 1-A.
 Alpha  occ. eigenvalues --  -14.32855 -14.32339 -14.30524 -10.23305 -10.22298
 Alpha  occ. eigenvalues --  -10.21705 -10.21345 -10.20902 -10.20524 -10.19700
 Alpha  occ. eigenvalues --  -10.18181 -10.17331 -10.16956  -0.91640  -0.90547
 Alpha  occ. eigenvalues --   -0.89674  -0.81817  -0.76680  -0.75264  -0.71979
 Alpha  occ. eigenvalues --   -0.67158  -0.62973  -0.61298  -0.59396  -0.57746
 Alpha  occ. eigenvalues --   -0.52520  -0.50359  -0.48476  -0.47172  -0.46333
 Alpha  occ. eigenvalues --   -0.44868  -0.43986  -0.43869  -0.43153  -0.41123
 Alpha  occ. eigenvalues --   -0.39762  -0.38205  -0.37704  -0.37096  -0.37018
 Alpha  occ. eigenvalues --   -0.36092  -0.35687  -0.35443  -0.34670  -0.33952
 Alpha  occ. eigenvalues --   -0.32471  -0.32345  -0.31715  -0.31415  -0.23443
 Alpha  occ. eigenvalues --   -0.21718
 Alpha virt. eigenvalues --    0.03149   0.03797   0.06923   0.08891   0.09955
 Alpha virt. eigenvalues --    0.10162   0.11054   0.11445   0.12475   0.13038
 Alpha virt. eigenvalues --    0.13991   0.15096   0.15533   0.15738   0.16217

 Mulliken charges:
               1
     1  C   -0.379273
     2  C   -0.183726
     3  C   -0.101229
     4  N   -0.311986
     5  C   -0.145130
     6  C   -0.004827
     7  C   -0.362875
     8  C    0.276818
     9  N   -0.321703
    10  C   -0.163009
    11  N   -0.303448
    12  C   -0.101876
    13  C   -0.390746
    14  H    0.113893
    15  H    0.114586
    16  H    0.112660
    17  H    0.103050
    18  H    0.106083
    19  H    0.093364
    20  H    0.072529
    21  H    0.235592
    22  H    0.098641
    23  H    0.073696
    24  H    0.109459
    25  H    0.159700
    26  H    0.143930
    27  H    0.113242
    28  H    0.082648
    29  H    0.212655
    30  H    0.107805
    31  H    0.079230
    32  H    0.129689
    33  H    0.118926
    34  H    0.111633
 Sum of Mulliken charges =  -0.00000

 Dipole moment (field-independent basis, Debye):
    X=              3.0323    Y=             -2.2923    Z=              1.9342  Tot=              4.2651
 Quadrupole moment (field-independent basis, Debye-Ang):
   XX=            -77.1793   YY=            -91.4855   ZZ=            -83.0955
   XY=              5.6529   XZ=              1.5368   YZ=              2.5226

  Exact polarizability: 165.729  -6.579 122.795   1.572  -2.770 103.381
 Approx polarizability: 190.726 -14.917 180.945   5.649  -4.744 163.480

                      1                      2                      3
                      A                      A                      A
 Frequencies --     29.3494                43.0835                45.9010
 Red. masses --      3.2800                 3.3630                 2.3146
 Frc consts  --      0.0017                 0.0037                 0.0029
 IR Inten    --      0.0426                 0.8325                 4.0859

                      4                      5                      6
                      A                      A                      A
 Frequencies --     60.0800                85.2361                89.6126
 Red. masses --      1.6853                 3.2450                 2.6143
 Frc consts  --      0.0036                 0.0139                 0.0124
 IR Inten    --      0.7694                 0.6551                 4.1012

                      7                      8                      9
                      A                      A                      A
 Frequencies --    107.8553               126.8623               143.5174
 Red. masses --      3.4621                 2.9339                 2.3599
 Frc consts  --      0.0237                 0.0278                 0.0286
 IR Inten    --      3.0834                 2.8463                 3.3401

                     10                     11                     12
                      A                      A                      A
 Frequencies --    160.7708               175.3865               225.2999
 Red. masses --      3.6268                 2.3330                 3.9180
 Frc consts  --      0.0552                 0.0423                 0.1172
 IR Inten    --      1.9842                 0.7524                 0.4408

                     13                     14                     15
                      A                      A                      A
 Frequencies --    239.7686               254.1824               263.0846
 Red. masses --      1.1385                 1.1564                 3.1743
 Frc consts  --      0.0386                 0.0440                 0.1294
 IR Inten    --      0.1150                 1.5716                 0.7026

                     16                     17                     18
                      A                      A                      A
 Frequencies --    268.2993               355.2375               403.9534
 Red. masses --      3.3452                 2.7800                 3.0296
 Frc consts  --      0.1419                 0.2067                 0.2913
 IR Inten    --      2.7241                 2.5546                 0.6231

                     19                     20                     21
                      A                      A                      A
 Frequencies --    411.5677               430.6667               513.8428
 Red. masses --      2.6844                 3.6287                 3.0839
 Frc consts  --      0.2679                 0.3965                 0.4797
 IR Inten    --      0.9720                 1.5107                 3.1342

                     22                     23                     24
                      A                      A                      A
 Frequencies --    523.8105               580.9354               760.7114
 Red. masses --      3.7702                 3.9414                 1.0835
 Frc consts  --      0.6095                 0.7837                 0.3694
 IR Inten    --      0.3128                 2.6704                 1.4142

                     25                     26                     27
                      A                      A                      A
 Frequencies --    777.2161               789.5584               816.1756
 Red. masses --      1.3025                 1.2477                 1.1434
 Frc consts  --      0.4636                 0.4583                 0.4488
 IR Inten    --     34.4501                80.7562                 1.2351

                     28                     29                     30
                      A                      A                      A
 Frequencies --    839.8107               878.1742               898.6268
 Red. masses --      2.3239                 1.4565                 1.2893
 Frc consts  --      0.9657                 0.6618                 0.6134
 IR Inten    --      8.1824                 3.0503                 3.0737

                     31                     32                     33
                      A                      A                      A
 Frequencies --    905.0400               919.4454               953.8754
 Red. masses --      1.5989                 1.7642                 2.0979
 Frc consts  --      0.7716                 0.8787                 1.1246
 IR Inten    --      1.8368                 2.2366                 0.8449

                     34                     35                     36
                      A                      A                      A
 Frequencies --    976.1114              1013.2069              1040.8974
 Red. masses --      2.1892                 3.1949                 3.0780
 Frc consts  --      1.2290                 1.9325                 1.9649
 IR Inten    --      4.4214                 0.4486                 3.4870

                     37                     38                     39
                      A                      A                      A
 Frequencies --   1061.9771              1078.1072              1093.8278
 Red. masses --      2.6245                 2.0714                 2.6261
 Frc consts  --      1.7439                 1.4185                 1.8513
 IR Inten    --      3.3672                 9.1635                 7.6466

                     40                     41                     42
                      A                      A                      A
 Frequencies --   1099.7117              1136.5533              1151.1782
 Red. masses --      1.8956                 2.2154                 2.9202
 Frc consts  --      1.3507                 1.6861                 2.2801
 IR Inten    --      1.6283                45.1553                88.6555

                     43                     44                     45
                      A                      A                      A
 Frequencies --   1152.9570              1161.3530              1172.2611
 Red. masses --      2.0647                 3.3812                 1.5853
 Frc consts  --      1.6171                 2.6869                 1.2835
 IR Inten    --     15.5448                 3.9188                14.7218

                     46                     47                     48
                      A                      A                      A
 Frequencies --   1191.6980              1226.7147              1257.9808
 Red. masses --      1.6018                 1.4099                 1.3775
 Frc consts  --      1.3403                 1.2501                 1.2843
 IR Inten    --      2.9618                 1.1698                10.6272

                     49                     50                     51
                      A                      A                      A
 Frequencies --   1261.9481              1293.5589              1302.4904
 Red. masses --      1.2421                 1.1980                 1.2166
 Frc consts  --      1.1654                 1.1811                 1.2160
 IR Inten    --      4.2593                 2.6884                 5.0625

                     52                     53                     54
                      A                      A                      A
 Frequencies --   1307.2067              1325.1909              1331.7359
 Red. masses --      1.3115                 1.1167                 1.2601
 Frc consts  --      1.3204                 1.1555                 1.3167
 IR Inten    --     14.3165                 0.4493                 8.8395

                     55                     56                     57
                      A                      A                      A
 Frequencies --   1334.8449              1365.9817              1385.3178
 Red. masses --      1.2587                 1.2978                 1.3289
 Frc consts  --      1.3214                 1.4267                 1.5026
 IR Inten    --      4.1856                37.0842                 4.5830

                     58                     59                     60
                      A                      A                      A
 Frequencies --   1391.6905              1404.8060              1411.9378
 Red. masses --      1.3933                 1.2621                 1.2541
 Frc consts  --      1.5899                 1.4675                 1.4731
 IR Inten    --     12.5876                 4.9679                 0.6484

                     61                     62                     63
                      A                      A                      A
 Frequencies --   1424.1086              1432.6816              1470.7809
 Red. masses --      1.4250                 1.4712                 1.1087
 Frc consts  --      1.7028                 1.7792                 1.4131
 IR Inten    --      2.3203                 0.1405                12.5765

                     64                     65                     66
                      A                      A                      A
 Frequencies --   1484.4908              1490.4279              1495.6187
 Red. masses --      1.0868                 1.0582                 1.0706
 Frc consts  --      1.4111                 1.3850                 1.4110
 IR Inten    --      8.2522                 1.5872                 5.9311

                     67                     68                     69
                      A                      A                      A
 Frequencies --   1498.6589              1500.0407              1503.8071
 Red. masses --      1.0576                 1.0423                 1.0765
 Frc consts  --      1.3995                 1.3819                 1.4344
 IR Inten    --      6.0486                 5.1951                 1.2844

                     70                     71                     72
                      A                      A                      A
 Frequencies --   1507.2644              1511.6007              1517.8018
 Red. masses --      1.1318                 1.0974                 1.1747
 Frc consts  --      1.5150                 1.4774                 1.5944
 IR Inten    --     28.7342                 5.5028                39.0605

                     73                     74                     75
                      A                      A                      A
 Frequencies --   1524.3472              1525.5783              2353.6021
 Red. masses --      1.0922                 1.0920                12.5998
 Frc consts  --      1.4953                 1.4975                41.1225
 IR Inten    --      2.3271                 1.8828                14.3509

                     76                     77                     78
                      A                      A                      A
 Frequencies --   2886.9955              2903.9490              2913.5351
 Red. masses --      1.0735                 1.0728                 1.0723
 Frc consts  --      5.2715                 5.3302                 5.3631
 IR Inten    --     41.5765                82.1162                61.5127

                     79                     80                     81
                      A                      A                      A
 Frequencies --   2925.9345              3009.5468              3018.5163
 Red. masses --      1.0734                 1.0816                 1.0838
 Frc consts  --      5.4141                 5.7718                 5.8183
 IR Inten    --    106.0623                 6.3308                26.5729

                     82                     83                     84
                      A                      A                      A
 Frequencies --   3023.5642              3026.2123              3030.1623
 Red. masses --      1.0647                 1.0627                 1.0375
 Frc consts  --      5.7350                 5.7338                 5.6126
 IR Inten    --     35.5566                 5.8366                46.0553

                     85                     86                     87
                      A                      A                      A
 Frequencies --   3031.3767              3038.5821              3055.0831
 Red. masses --      1.0489                 1.0745                 1.0839
 Frc consts  --      5.6787                 5.8451                 5.9607
 IR Inten    --     11.3995                28.1627                13.3339

                     88                     89                     90
                      A                      A                      A
 Frequencies --   3063.5138              3067.7580              3085.1712
 Red. masses --      1.0986                 1.0862                 1.0969
 Frc consts  --      6.0749                 6.0231                 6.1514
 IR Inten    --     10.3595                22.5892                 6.8895

                     91                     92                     93
                      A                      A                      A
 Frequencies --   3096.1335              3099.4681              3104.2314
 Red. masses --      1.1022                 1.0980                 1.1005
 Frc consts  --      6.2253                 6.2150                 6.2482
 IR Inten    --     52.7085                36.6111                34.9713

                     94                     95                     96
                      A                      A                      A
 Frequencies --   3120.8114              3504.0715              3520.3649
 Red. masses --      1.1024                 1.0732                 1.0734
 Frc consts  --      6.3259                 7.7638                 7.8378
 IR Inten    --     25.2486                 0.7131                11.4820

 - Thermochemistry -
 -------------------
 Temperature   298.150 Kelvin.  Pressure   1.00000 Atm.
 Atom     1 has atomic number  6 and mass  12.00000

 Molecular mass:   183.17355 amu.
 Principal axes and moments of inertia in atomic units:
                           1         2         3
     Eigenvalues --  1339.828256786.913957851.70864
           X            0.99998   0.00632  -0.00087
           Y           -0.00632   0.99998   0.00071
           Z            0.00087  -0.00070   1.00000
 This molecule is an asymmetric top.
 Rotational symmetry number  1.
 Warning -- assumption of classical behavior for rotation
           may cause significant error
 Rotational temperatures (Kelvin)      0.06465     0.01276     0.01103
 Rotational constants (GHZ):           1.34699     0.26591     0.22985
 Zero-point vibrational energy     806127.4 (Joules/Mol)
                                  192.66907 (Kcal/Mol)
 Warning -- explicit consideration of  23 degrees of freedom as
           vibrations may cause significant error
 Vibrational temperatures:     42.23    61.99    66.04    86.44   122.64
          (Kelvin)            128.93   155.18   182.53   206.49   231.31
                              252.34   324.16   344.97   365.71   378.52
                              386.02   511.11   581.20   592.15   619.63
                              739.31   753.65   835.84  1094.49  1118.24
                             1136.00  1174.29  1208.30  1263.50  1292.92
                             1302.15  1322.88  1372.41  1404.41  1457.78
                             1497.62  1527.95  1551.16  1573.77  1582.24
                             1635.25  1656.29  1658.85  1670.93  1686.62
                             1714.59  1764.97  1809.95  1815.66  1861.14
                             1873.99  1880.78  1906.65  1916.07  1920.54
                             1965.34  1993.16  2002.33  2021.20  2031.46
                             2048.97  2061.31  2116.13  2135.85  2144.39
                             2151.86  2156.24  2158.22  2163.64  2168.62
                             2174.86  2183.78  2193.20  2194.97  3386.31
                             4153.74  4178.13  4191.93  4209.77  4330.07
                             4342.97  4350.23  4354.04  4359.73  4361.47
                             4371.84  4395.58  4407.71  4413.82  4438.87
                             4454.65  4459.44  4466.30  4490.15  5041.58
                             5065.02

 Zero-point correction=                           0.307038 (Hartree/Particle)
 Thermal correction to Energy=                    0.323528
 Thermal correction to Enthalpy=                  0.324472
 Thermal correction to Gibbs Free Energy=         0.261128
 Sum of electronic and zero-point Energies=           -557.676039
 Sum of electronic and thermal Energies=              -557.659549
 Sum of electronic and thermal Enthalpies=            -557.658604
 Sum of electronic and thermal Free Energies=         -557.721949

                     E (Thermal)             CV                S
                      KCal/Mol        Cal/Mol-Kelvin    Cal/Mol-Kelvin
 Total                  203.017             57.904            133.319
 Electronic               0.000              0.000              0.000
 Translational            0.889              2.981             41.522
 Rotational               0.889              2.981             32.635
 Vibrational            201.240             51.943             59.162
 Vibration     1          0.593              1.984              5.873
 Vibration     2          0.595              1.980              5.112
 Vibration     3          0.595              1.979              4.987
 Vibration     4          0.597              1.973              4.455
 Vibration     5          0.601              1.959              3.767
 Vibration     6          0.602              1.957              3.669
 Vibration     7          0.606              1.943              3.307
 Vibration     8          0.611              1.926              2.993
 Vibration     9          0.616              1.910              2.756
 Vibration    10          0.622              1.890              2.541
 Vibration    11          0.627              1.873              2.377
 Vibration    12          0.650              1.803              1.916
 Vibration    13          0.657              1.780              1.805
 Vibration    14          0.665              1.756              1.701
 Vibration    15          0.670              1.740              1.641
 Vibration    16          0.673              1.731              1.607
 Vibration    17          0.731              1.565              1.143
 Vibration    18          0.769              1.462              0.948
 Vibration    19          0.776              1.445              0.921
 Vibration    20          0.792              1.403              0.856
 Vibration    21          0.869              1.219              0.624
 Vibration    22          0.879              1.197              0.601
 Vibration    23          0.938              1.073              0.484

                           ! Non-Optimized Parameters !
 Normal termination of Gaussian 16 at Mon May 31 21:43:43 2021.
