 Gaussian 16, Revision A.03,
 Gaussian 16:  ES64L-G16RevA.03 25-Dec-2016

 -----------------------------
 # opt freq b3lyp/6-31g(2df,p)
 -----------------------------

 -------------------
 Title Card Required
 -------------------
 Symbolic Z-matrix:
 Charge =  0 Multiplicity = 1

 SCF Done:  E(RB3LYP) =  -481.733225044     A.U. after   12 cycles
 SCF Done:  E(RB3LYP) =  -481.740501540     A.U. after   11 cycles
 SCF Done:  E(RB3LYP) =  -481.741623981     A.U. after   10 cycles
 SCF Done:  E(RB3LYP) =  -481.741813632     A.U. after   10 cycles
 SCF Done:  E(RB3LYP) =  -481.741841594     A.U. after    9 cycles
 SCF Done:  E(RB3LYP) =  -481.741845750     A.U. after    7 cycles
 SCF Done:  E(RB3LYP) =  -481.741846759     A.U. after    7 cycles
 SCF Done:  E(RB3LYP) =  -481.741847085     A.U. after    6 cycles
 SCF Done:  E(RB3LYP) =  -481.741847412     A.U. after    7 cycles
 SCF Done:  E(RB3LYP) =  -481.741847803     A.U. after    7 cycles
 SCF Done:  E(RB3LYP) =  -481.748448617     A.U. after   10 cycles
 SCF Done:  E(RB3LYP) =  -481.748025877     A.U. after   11 cycles
 SCF Done:  E(RB3LYP) =  -481.747679048     A.U. after   10 cycles
 SCF Done:  E(RB3LYP) =  -481.747203626     A.U. after   10 cycles
 SCF Done:  E(RB3LYP) =  -481.748516872     A.U. after    8 cycles
 SCF Done:  E(RB3LYP) =  -481.748904624     A.U. after   10 cycles
 SCF Done:  E(RB3LYP) =  -481.748916215     A.U. after    9 cycles
 SCF Done:  E(RB3LYP) =  -481.748919256     A.U. after    7 cycles
 SCF Done:  E(RB3LYP) =  -481.748919610     A.U. after    7 cycles
 Optimization completed.
    -- Stationary point found.
 Normal termination of Gaussian 16 at Tue Jun  1 03:06:55 2021.

 ----------------------------------------------------------------------
 #N Geom=AllCheck Guess=TCheck SCRF=Check GenChk RB3LYP/6-31G(2df,p) Fr
 eq
 ----------------------------------------------------------------------

 Structure from the checkpoint file:  "CCCNCCNpNpCCC.chk"
 -------------------
 Title Card Required
 -------------------
 Charge =  0 Multiplicity = 1

                         Standard orientation:
 ---------------------------------------------------------------------
 Center     Atomic      Atomic             Coordinates (Angstroms)
 Number     Number       Type             X           Y           Z
 ---------------------------------------------------------------------
      1          6           0        5.783681    0.029582    0.207962
      2          6           0        4.456756   -0.579047   -0.251799
      3          6           0        3.239870    0.189078    0.263671
      4          7           0        1.996233   -0.393893   -0.225598
      5          6           0        0.800725    0.283511    0.263856
      6          6           0       -0.450720   -0.326756   -0.364247
      7          7           0       -1.674672    0.309701    0.117871
      8          7           0       -1.699557    1.661320   -0.345954
      9          6           0       -2.874817   -0.441951   -0.246786
     10          6           0       -4.135197    0.056901    0.462437
     11          6           0       -5.364934   -0.793622    0.132480
     12          1           0        6.636054   -0.542892   -0.170286
     13          1           0        5.855679    0.049995    1.301105
     14          1           0        5.891195    1.060009   -0.148657
     15          1           0        4.394985   -1.621765    0.090414
     16          1           0        4.410945   -0.612111   -1.346370
     17          1           0        3.285534    1.227493   -0.092195
     18          1           0        3.282521    0.243755    1.369924
     19          1           0        1.964120   -1.372111    0.050080
     20          1           0        0.857587    1.338245   -0.020952
     21          1           0        0.696908    0.257013    1.364329
     22          1           0       -0.510338   -1.389126   -0.096453
     23          1           0       -0.361771   -0.278309   -1.465024
     24          1           0       -2.301298    2.194585    0.272524
     25          1           0       -2.115696    1.705248   -1.283221
     26          1           0       -2.704856   -1.489757    0.028056
     27          1           0       -3.036738   -0.425370   -1.345660
     28          1           0       -4.330479    1.098597    0.180443
     29          1           0       -3.949401    0.054841    1.543031
     30          1           0       -5.573377   -0.792129   -0.943213
     31          1           0       -6.255767   -0.416524    0.643456
     32          1           0       -5.222010   -1.835758    0.438995
 ---------------------------------------------------------------------

 SCF Done:  E(RB3LYP) =  -481.748919610     A.U. after    1 cycles

 The electronic state is 1-A.
 Alpha  occ. eigenvalues --  -14.33829 -14.33105 -14.29968 -10.20171 -10.19332
 Alpha  occ. eigenvalues --  -10.19216 -10.18514 -10.18078 -10.17642 -10.17256
 Alpha  occ. eigenvalues --  -10.16884  -0.96446  -0.88999  -0.79962  -0.77770
 Alpha  occ. eigenvalues --   -0.76090  -0.70924  -0.66192  -0.62671  -0.58695
 Alpha  occ. eigenvalues --   -0.58283  -0.57325  -0.50048  -0.47925  -0.47350
 Alpha  occ. eigenvalues --   -0.46925  -0.45217  -0.44292  -0.41803  -0.41570
 Alpha  occ. eigenvalues --   -0.40740  -0.38967  -0.38573  -0.37716  -0.35928
 Alpha  occ. eigenvalues --   -0.35686  -0.34512  -0.33839  -0.33313  -0.32776
 Alpha  occ. eigenvalues --   -0.31975  -0.31365  -0.24787  -0.21837  -0.20938
 Alpha virt. eigenvalues --    0.07463   0.09362   0.10332   0.10591   0.11028
 Alpha virt. eigenvalues --    0.12695   0.13042   0.14902   0.15293   0.15760
 Alpha virt. eigenvalues --    0.16159   0.16909   0.17306   0.17520   0.18405

 Mulliken charges:
               1
     1  C   -0.377648
     2  C   -0.179996
     3  C   -0.094899
     4  N   -0.301229
     5  C   -0.129444
     6  C   -0.124625
     7  N   -0.087424
     8  N   -0.464686
     9  C   -0.098236
    10  C   -0.183851
    11  C   -0.378446
    12  H    0.111316
    13  H    0.113537
    14  H    0.115076
    15  H    0.086769
    16  H    0.105867
    17  H    0.098891
    18  H    0.068876
    19  H    0.203799
    20  H    0.120216
    21  H    0.074588
    22  H    0.085704
    23  H    0.082490
    24  H    0.242771
    25  H    0.208583
    26  H    0.098388
    27  H    0.066588
    28  H    0.085289
    29  H    0.105652
    30  H    0.115516
    31  H    0.114589
    32  H    0.115978
 Sum of Mulliken charges =  -0.00000

 Dipole moment (field-independent basis, Debye):
    X=             -1.3937    Y=             -0.4998    Z=              0.1361  Tot=              1.4869
 Quadrupole moment (field-independent basis, Debye-Ang):
   XX=            -66.2047   YY=            -69.4432   ZZ=            -72.9026
   XY=             -2.8349   XZ=              2.3470   YZ=             -1.3822

  Exact polarizability: 147.974   0.434 102.791   0.143   0.279  95.505
 Approx polarizability: 155.361  -1.246 155.359   0.491  -1.010 148.460

                      1                      2                      3
                      A                      A                      A
 Frequencies --     31.0650                42.1099                59.5468
 Red. masses --      3.4489                 2.0554                 2.2568
 Frc consts  --      0.0020                 0.0021                 0.0047
 IR Inten    --      0.2207                 0.2348                 0.6777

                      4                      5                      6
                      A                      A                      A
 Frequencies --     78.2930                88.9870               132.3468
 Red. masses --      2.9269                 2.0282                 1.8872
 Frc consts  --      0.0106                 0.0095                 0.0195
 IR Inten    --      0.0317                 0.0985                 2.0532

                      7                      8                      9
                      A                      A                      A
 Frequencies --    136.5659               150.1515               174.1677
 Red. masses --      2.5288                 2.9764                 2.3123
 Frc consts  --      0.0278                 0.0395                 0.0413
 IR Inten    --      1.4123                 0.5337                 0.8129

                     10                     11                     12
                      A                      A                      A
 Frequencies --    229.8044               238.5916               241.3174
 Red. masses --      2.6376                 1.1681                 1.5001
 Frc consts  --      0.0821                 0.0392                 0.0515
 IR Inten    --      0.5260                 0.0532                 0.0785

                     13                     14                     15
                      A                      A                      A
 Frequencies --    249.4209               311.1449               354.2126
 Red. masses --      2.1000                 1.2449                 2.6581
 Frc consts  --      0.0770                 0.0710                 0.1965
 IR Inten    --      2.0915                20.9542                 5.7651

                     16                     17                     18
                      A                      A                      A
 Frequencies --    364.7156               425.1133               455.6245
 Red. masses --      2.7929                 2.1462                 3.5650
 Frc consts  --      0.2189                 0.2285                 0.4360
 IR Inten    --      1.4771                 0.2404                 3.0550

                     19                     20                     21
                      A                      A                      A
 Frequencies --    486.5931               595.4553               759.8560
 Red. masses --      3.0453                 3.1580                 1.0847
 Frc consts  --      0.4248                 0.6597                 0.3690
 IR Inten    --      5.0119                 9.6420                 2.2490

                     22                     23                     24
                      A                      A                      A
 Frequencies --    760.7629               787.8908               821.5148
 Red. masses --      1.0954                 1.1996                 1.2118
 Frc consts  --      0.3735                 0.4387                 0.4819
 IR Inten    --      1.1004                70.4964                 1.5066

                     25                     26                     27
                      A                      A                      A
 Frequencies --    845.5510               892.5071               898.1616
 Red. masses --      3.6181                 1.2261                 1.2708
 Frc consts  --      1.5241                 0.5754                 0.6040
 IR Inten    --     30.7968                 0.3278                 3.9693

                     28                     29                     30
                      A                      A                      A
 Frequencies --    905.5575               919.7376               967.5486
 Red. masses --      1.6664                 1.6631                 1.9184
 Frc consts  --      0.8051                 0.8289                 1.0581
 IR Inten    --      3.6940                 8.4812                91.3264

                     31                     32                     33
                      A                      A                      A
 Frequencies --   1027.5988              1042.3854              1063.3463
 Red. masses --      3.0525                 2.8415                 2.4034
 Frc consts  --      1.8991                 1.8191                 1.6011
 IR Inten    --      4.4033                 3.7224                 1.9933

                     34                     35                     36
                      A                      A                      A
 Frequencies --   1065.6987              1087.1247              1114.1765
 Red. masses --      2.4321                 1.9358                 1.6604
 Frc consts  --      1.6275                 1.3479                 1.2144
 IR Inten    --      4.0665                 1.5055                29.8490

                     37                     38                     39
                      A                      A                      A
 Frequencies --   1118.7446              1146.4647              1155.6115
 Red. masses --      1.9248                 1.9740                 3.6999
 Frc consts  --      1.4194                 1.5287                 2.9111
 IR Inten    --     19.6204                 2.1625                87.5334

                     40                     41                     42
                      A                      A                      A
 Frequencies --   1159.2002              1213.4056              1231.6900
 Red. masses --      1.9356                 2.0316                 2.1593
 Frc consts  --      1.5325                 1.7624                 1.9301
 IR Inten    --      0.6682                 0.4368                 4.6637

                     43                     44                     45
                      A                      A                      A
 Frequencies --   1241.0357              1278.6727              1283.4559
 Red. masses --      1.4658                 1.2916                 1.3109
 Frc consts  --      1.3301                 1.2443                 1.2722
 IR Inten    --      8.7994                 5.7257                 3.4039

                     46                     47                     48
                      A                      A                      A
 Frequencies --   1301.2749              1310.8388              1321.2438
 Red. masses --      1.2109                 1.2154                 1.1072
 Frc consts  --      1.2081                 1.2305                 1.1388
 IR Inten    --      6.1244                31.2572                 4.7605

                     49                     50                     51
                      A                      A                      A
 Frequencies --   1322.7826              1332.0167              1345.9197
 Red. masses --      1.1088                 1.4708                 1.3712
 Frc consts  --      1.1431                 1.5375                 1.4634
 IR Inten    --      5.8504                 0.7741                 4.5770

                     52                     53                     54
                      A                      A                      A
 Frequencies --   1356.9749              1396.5694              1410.6097
 Red. masses --      1.2023                 1.5272                 1.3154
 Frc consts  --      1.3044                 1.7549                 1.5422
 IR Inten    --      8.9488                 2.3796                 2.9573

                     55                     56                     57
                      A                      A                      A
 Frequencies --   1412.2060              1419.1771              1441.0467
 Red. masses --      1.2389                 1.4047                 1.5090
 Frc consts  --      1.4557                 1.6668                 1.8463
 IR Inten    --      0.0798                 8.7179                 1.5619

                     58                     59                     60
                      A                      A                      A
 Frequencies --   1479.0248              1489.4408              1492.2620
 Red. masses --      1.0879                 1.0813                 1.1307
 Frc consts  --      1.4021                 1.4133                 1.4835
 IR Inten    --      2.8474                 0.2078                11.7260

                     61                     62                     63
                      A                      A                      A
 Frequencies --   1494.3644              1497.0547              1500.3722
 Red. masses --      1.1137                 1.0763                 1.0407
 Frc consts  --      1.4653                 1.4213                 1.3802
 IR Inten    --     12.1319                 0.6928                 7.1927

                     64                     65                     66
                      A                      A                      A
 Frequencies --   1500.5804              1504.7636              1513.0179
 Red. masses --      1.0529                 1.0699                 1.0905
 Frc consts  --      1.3969                 1.4274                 1.4709
 IR Inten    --      4.3528                 2.0939                 4.6257

                     67                     68                     69
                      A                      A                      A
 Frequencies --   1517.4780              1528.8985              1664.9544
 Red. masses --      1.0876                 1.0871                 1.0845
 Frc consts  --      1.4756                 1.4972                 1.7712
 IR Inten    --      9.8030                 0.6529                13.6322

                     70                     71                     72
                      A                      A                      A
 Frequencies --   2880.1222              2900.2576              2929.6792
 Red. masses --      1.0718                 1.0731                 1.0718
 Frc consts  --      5.2380                 5.3184                 5.4198
 IR Inten    --     64.9273                71.5799                15.8929

                     73                     74                     75
                      A                      A                      A
 Frequencies --   2944.5452              3007.8267              3025.2907
 Red. masses --      1.0706                 1.0694                 1.0755
 Frc consts  --      5.4689                 5.7002                 5.7994
 IR Inten    --    124.6911                11.1943                30.4640

                     76                     77                     78
                      A                      A                      A
 Frequencies --   3027.1299              3030.3824              3030.5434
 Red. masses --      1.0594                 1.0398                 1.0377
 Frc consts  --      5.7199                 5.6257                 5.6151
 IR Inten    --     13.0220                62.0550                15.3715

                     79                     80                     81
                      A                      A                      A
 Frequencies --   3036.7624              3049.4402              3061.2944
 Red. masses --      1.0866                 1.0859                 1.0962
 Frc consts  --      5.9040                 5.9498                 6.0527
 IR Inten    --      4.9587                30.0040                14.4613

                     82                     83                     84
                      A                      A                      A
 Frequencies --   3066.2408              3085.9017              3096.2517
 Red. masses --      1.1001                 1.0880                 1.1020
 Frc consts  --      6.0940                 6.1042                 6.2243
 IR Inten    --     18.5806                23.6450                51.7601

                     85                     86                     87
                      A                      A                      A
 Frequencies --   3097.6148              3102.7621              3105.0372
 Red. masses --      1.1024                 1.1007                 1.1007
 Frc consts  --      6.2323                 6.2434                 6.2524
 IR Inten    --     59.2920                37.0982                33.8396

                     88                     89                     90
                      A                      A                      A
 Frequencies --   3346.9803              3485.9729              3549.9762
 Red. masses --      1.0583                 1.0730                 1.0815
 Frc consts  --      6.9853                 7.6822                 8.0302
 IR Inten    --     19.8011                 1.4225                 0.6019

 - Thermochemistry -
 -------------------
 Temperature   298.150 Kelvin.  Pressure   1.00000 Atm.
 Atom     1 has atomic number  6 and mass  12.00000

 Molecular mass:   159.17355 amu.
 Principal axes and moments of inertia in atomic units:
                           1         2         3
     Eigenvalues --   406.765476886.557637095.75961
           X            0.99999   0.00308   0.00217
           Y           -0.00311   0.99994   0.01017
           Z           -0.00214  -0.01017   0.99995
 This molecule is an asymmetric top.
 Rotational symmetry number  1.
 Rotational temperatures (Kelvin)      0.21293     0.01258     0.01221
 Rotational constants (GHZ):           4.43681     0.26207     0.25434
 Zero-point vibrational energy     777846.7 (Joules/Mol)
                                  185.90982 (Kcal/Mol)
 Warning -- explicit consideration of  20 degrees of freedom as
           vibrations may cause significant error
 Vibrational temperatures:     44.70    60.59    85.67   112.65   128.03
          (Kelvin)            190.42   196.49   216.03   250.59   330.64
                              343.28   347.20   358.86   447.67   509.63
                              524.74   611.64   655.54   700.10   856.73
                             1093.26  1094.57  1133.60  1181.98  1216.56
                             1284.12  1292.25  1302.90  1323.30  1392.09
                             1478.49  1499.76  1529.92  1533.30  1564.13
                             1603.05  1609.62  1649.51  1662.67  1667.83
                             1745.82  1772.13  1785.57  1839.72  1846.61
                             1872.24  1886.00  1900.98  1903.19  1916.47
                             1936.48  1952.38  2009.35  2029.55  2031.85
                             2041.88  2073.34  2127.99  2142.97  2147.03
                             2150.06  2153.93  2158.70  2159.00  2165.02
                             2176.90  2183.31  2199.74  2395.50  4143.85
                             4172.82  4215.15  4236.54  4327.59  4352.72
                             4355.36  4360.04  4360.28  4369.22  4387.46
                             4404.52  4411.64  4439.92  4454.82  4456.78
                             4464.18  4467.46  4815.56  5015.54  5107.62

 Zero-point correction=                           0.296266 (Hartree/Particle)
 Thermal correction to Energy=                    0.310957
 Thermal correction to Enthalpy=                  0.311901
 Thermal correction to Gibbs Free Energy=         0.253532
 Sum of electronic and zero-point Energies=           -481.452653
 Sum of electronic and thermal Energies=              -481.437963
 Sum of electronic and thermal Enthalpies=            -481.437019
 Sum of electronic and thermal Free Energies=         -481.495388

                     E (Thermal)             CV                S
                      KCal/Mol        Cal/Mol-Kelvin    Cal/Mol-Kelvin
 Total                  195.128             52.127            122.848
 Electronic               0.000              0.000              0.000
 Translational            0.889              2.981             41.104
 Rotational               0.889              2.981             31.364
 Vibrational            193.351             46.166             50.380
 Vibration     1          0.594              1.983              5.760
 Vibration     2          0.595              1.980              5.157
 Vibration     3          0.597              1.974              4.472
 Vibration     4          0.600              1.964              3.933
 Vibration     5          0.602              1.957              3.682
 Vibration     6          0.612              1.921              2.912
 Vibration     7          0.614              1.917              2.851
 Vibration     8          0.618              1.902              2.670
 Vibration     9          0.627              1.874              2.390
 Vibration    10          0.652              1.795              1.880
 Vibration    11          0.657              1.781              1.813
 Vibration    12          0.658              1.777              1.793
 Vibration    13          0.662              1.764              1.735
 Vibration    14          0.700              1.652              1.356
 Vibration    15          0.730              1.567              1.147
 Vibration    16          0.738              1.545              1.102
 Vibration    17          0.787              1.416              0.875
 Vibration    18          0.814              1.348              0.779
 Vibration    19          0.843              1.280              0.693
 Vibration    20          0.953              1.041              0.458

                           ! Non-Optimized Parameters !
 Normal termination of Gaussian 16 at Tue Jun  1 04:10:24 2021.
