 Gaussian 16, Revision A.03,
 Gaussian 16:  ES64L-G16RevA.03 25-Dec-2016

 -----------------------------
 # opt freq b3lyp/6-31g(2df,p)
 -----------------------------

 -------------------
 Title Card Required
 -------------------
 Symbolic Z-matrix:
 Charge =  0 Multiplicity = 1

 SCF Done:  E(RB3LYP) =  -361.354226036     A.U. after   14 cycles
 SCF Done:  E(RB3LYP) =  -361.360928855     A.U. after   14 cycles
 SCF Done:  E(RB3LYP) =  -361.363455791     A.U. after   14 cycles
 SCF Done:  E(RB3LYP) =  -361.366800016     A.U. after   14 cycles
 SCF Done:  E(RB3LYP) =  -361.369123452     A.U. after   14 cycles
 SCF Done:  E(RB3LYP) =  -361.370031245     A.U. after   13 cycles
 SCF Done:  E(RB3LYP) =  -361.370274967     A.U. after   11 cycles
 SCF Done:  E(RB3LYP) =  -361.370332739     A.U. after    8 cycles
 SCF Done:  E(RB3LYP) =  -361.370345906     A.U. after    9 cycles
 SCF Done:  E(RB3LYP) =  -361.370349703     A.U. after    8 cycles
 SCF Done:  E(RB3LYP) =  -361.370351012     A.U. after    7 cycles
 SCF Done:  E(RB3LYP) =  -361.370351166     A.U. after    7 cycles
 Optimization completed.
    -- Stationary point found.
 Normal termination of Gaussian 16 at Tue Jun  1 15:30:26 2021.

 ----------------------------------------------------------------------
 #N Geom=AllCheck Guess=TCheck SCRF=Check GenChk RB3LYP/6-31G(2df,p) Fr
 eq
 ----------------------------------------------------------------------

 Structure from the checkpoint file:  "CCCNpCpNCtN.chk"
 -------------------
 Title Card Required
 -------------------
 Charge =  0 Multiplicity = 1

                         Standard orientation:
 ---------------------------------------------------------------------
 Center     Atomic      Atomic             Coordinates (Angstroms)
 Number     Number       Type             X           Y           Z
 ---------------------------------------------------------------------
      1          6           0       -3.078610   -1.061099    0.110037
      2          6           0       -2.023161   -0.089139   -0.426617
      3          6           0       -0.731675   -0.146953    0.391582
      4          7           0        0.362576    0.634963   -0.197835
      5          6           0        0.148456    2.076893   -0.188102
      6          7           0        1.593014    0.364352    0.464698
      7          6           0        2.284563   -0.687675    0.000957
      8          7           0        2.922776   -1.570126   -0.401627
      9          1           0       -3.998284   -1.003541   -0.478895
     10          1           0       -3.336059   -0.836232    1.150887
     11          1           0       -2.721545   -2.095665    0.071567
     12          1           0       -2.433082    0.926965   -0.419300
     13          1           0       -1.783182   -0.326893   -1.468958
     14          1           0       -0.385303   -1.185103    0.433624
     15          1           0       -0.930005    0.174732    1.433916
     16          1           0       -0.730152    2.315266   -0.790117
     17          1           0        1.018413    2.565743   -0.628923
     18          1           0       -0.008219    2.479878    0.829421
     19          1           0        1.561415    0.428368    1.482973
 ---------------------------------------------------------------------

 SCF Done:  E(RB3LYP) =  -361.370351166     A.U. after    1 cycles

 The electronic state is 1-A.
 Alpha  occ. eigenvalues --  -14.40533 -14.37857 -14.31295 -10.23544 -10.22399
 Alpha  occ. eigenvalues --  -10.21943 -10.19603 -10.18643  -1.02533  -0.89729
 Alpha  occ. eigenvalues --   -0.84956  -0.78779  -0.71446  -0.65931  -0.60119
 Alpha  occ. eigenvalues --   -0.59389  -0.53277  -0.48998  -0.47695  -0.43848
 Alpha  occ. eigenvalues --   -0.42107  -0.40726  -0.39401  -0.38592  -0.36412
 Alpha  occ. eigenvalues --   -0.35425  -0.34903  -0.34523  -0.32245  -0.26351
 Alpha  occ. eigenvalues --   -0.25109
 Alpha virt. eigenvalues --    0.02758   0.05845   0.07562   0.08784   0.10546
 Alpha virt. eigenvalues --    0.12262   0.12873   0.14577   0.15240   0.16127
 Alpha virt. eigenvalues --    0.16795   0.17492   0.18421   0.18509   0.19515

 Mulliken charges:
               1
     1  C   -0.383798
     2  C   -0.193209
     3  C   -0.111650
     4  N   -0.078015
     5  C   -0.313389
     6  N   -0.354435
     7  C    0.356477
     8  N   -0.339224
     9  H    0.121193
    10  H    0.118028
    11  H    0.124800
    12  H    0.103390
    13  H    0.120398
    14  H    0.125240
    15  H    0.076401
    16  H    0.137278
    17  H    0.143274
    18  H    0.096349
    19  H    0.250892
 Sum of Mulliken charges =  -0.00000

 Dipole moment (field-independent basis, Debye):
    X=             -3.7441    Y=              2.8833    Z=              2.1695  Tot=              5.1999
 Quadrupole moment (field-independent basis, Debye-Ang):
   XX=            -59.1801   YY=            -51.9510   ZZ=            -47.7864
   XY=              7.6659   XZ=              4.9224   YZ=             -1.3332

  Exact polarizability:  86.204  -7.468  76.207  -1.542   2.876  61.148
 Approx polarizability: 108.231 -18.468 113.084  -4.680   9.307  94.900

                      1                      2                      3
                      A                      A                      A
 Frequencies --     55.5842                74.4388               106.7766
 Red. masses --      5.2458                 1.6873                 2.7969
 Frc consts  --      0.0095                 0.0055                 0.0188
 IR Inten    --      4.7538                 1.0835                 0.9725

                      4                      5                      6
                      A                      A                      A
 Frequencies --    173.0491               192.4837               238.0944
 Red. masses --      2.7067                 2.7397                 1.1218
 Frc consts  --      0.0478                 0.0598                 0.0375
 IR Inten    --      1.8395                 2.8016                 0.0946

                      7                      8                      9
                      A                      A                      A
 Frequencies --    255.2946               338.7372               385.7502
 Red. masses --      1.2933                 2.5189                 3.2111
 Frc consts  --      0.0497                 0.1703                 0.2815
 IR Inten    --      0.8099                 0.4552                 5.9007

                     10                     11                     12
                      A                      A                      A
 Frequencies --    414.9374               444.5317               508.8331
 Red. masses --      2.6177                 2.6389                 3.6237
 Frc consts  --      0.2655                 0.3072                 0.5528
 IR Inten    --      8.2685                10.6299                13.0438

                     13                     14                     15
                      A                      A                      A
 Frequencies --    593.6894               670.0654               763.8469
 Red. masses --      7.2108                 2.4453                 1.1032
 Frc consts  --      1.4974                 0.6469                 0.3792
 IR Inten    --     33.2007                39.5892                 2.2126

                     16                     17                     18
                      A                      A                      A
 Frequencies --    878.4340               898.6080               932.1410
 Red. masses --      2.5814                 1.2901                 1.9662
 Frc consts  --      1.1736                 0.6138                 1.0066
 IR Inten    --     36.9162                 2.8783                13.2672

                     19                     20                     21
                      A                      A                      A
 Frequencies --   1007.2405              1048.9409              1092.2365
 Red. masses --      2.5681                 2.7315                 2.1264
 Frc consts  --      1.5351                 1.7707                 1.4946
 IR Inten    --     12.8495                 2.0613                 6.1176

                     22                     23                     24
                      A                      A                      A
 Frequencies --   1130.2269              1144.7723              1164.7550
 Red. masses --      1.6132                 2.7040                 2.0842
 Frc consts  --      1.2141                 2.0878                 1.6660
 IR Inten    --      3.6765                11.9600                 3.9743

                     25                     26                     27
                      A                      A                      A
 Frequencies --   1224.7860              1246.6064              1289.5477
 Red. masses --      2.3067                 2.5076                 1.2942
 Frc consts  --      2.0387                 2.2960                 1.2680
 IR Inten    --      3.5243                 4.1433                 7.0328

                     28                     29                     30
                      A                      A                      A
 Frequencies --   1334.3038              1342.0029              1407.3813
 Red. masses --      1.1146                 1.3823                 1.3798
 Frc consts  --      1.1692                 1.4668                 1.6102
 IR Inten    --      9.3440                 0.2961                 1.5162

                     31                     32                     33
                      A                      A                      A
 Frequencies --   1416.9745              1443.2038              1470.2980
 Red. masses --      1.2353                 1.1810                 1.2160
 Frc consts  --      1.4613                 1.4493                 1.5488
 IR Inten    --      1.9864                 0.3878                 4.2861

                     34                     35                     36
                      A                      A                      A
 Frequencies --   1484.3627              1493.5947              1499.0414
 Red. masses --      1.0624                 1.0647                 1.0543
 Frc consts  --      1.3792                 1.3994                 1.3958
 IR Inten    --      4.3884                 4.8301                 3.6430

                     37                     38                     39
                      A                      A                      A
 Frequencies --   1500.8230              1503.1849              1516.2798
 Red. masses --      1.0416                 1.0842                 1.1096
 Frc consts  --      1.3823                 1.4434                 1.5031
 IR Inten    --      5.9842                 3.4274                10.2680

                     40                     41                     42
                      A                      A                      A
 Frequencies --   2346.4454              2905.7328              2943.4961
 Red. masses --     12.3757                 1.0715                 1.0600
 Frc consts  --     40.1458                 5.3305                 5.4111
 IR Inten    --    110.5236                53.3851                72.5710

                     43                     44                     45
                      A                      A                      A
 Frequencies --   3033.7530              3038.1049              3062.3787
 Red. masses --      1.0380                 1.0582                 1.0884
 Frc consts  --      5.6287                 5.7547                 6.0140
 IR Inten    --     16.4471                23.9794                 7.6403

                     46                     47                     48
                      A                      A                      A
 Frequencies --   3078.2016              3100.8165              3104.6102
 Red. masses --      1.0999                 1.0756                 1.0984
 Frc consts  --      6.1403                 6.0934                 6.2377
 IR Inten    --      7.5145                24.9078                41.0530

                     49                     50                     51
                      A                      A                      A
 Frequencies --   3111.5413              3148.6959              3425.1883
 Red. masses --      1.1008                 1.1040                 1.0731
 Frc consts  --      6.2793                 6.4489                 7.4174
 IR Inten    --     31.4401                13.6682                14.9546

 - Thermochemistry -
 -------------------
 Temperature   298.150 Kelvin.  Pressure   1.00000 Atm.
 Atom     1 has atomic number  6 and mass  12.00000

 Molecular mass:   113.09530 amu.
 Principal axes and moments of inertia in atomic units:
                           1         2         3
     Eigenvalues --   572.167741633.961422059.73786
           X            0.99914   0.04114   0.00459
           Y           -0.04108   0.99908  -0.01203
           Z           -0.00508   0.01183   0.99992
 This molecule is an asymmetric top.
 Rotational symmetry number  1.
 Warning -- assumption of classical behavior for rotation
           may cause significant error
 Rotational temperatures (Kelvin)      0.15138     0.05301     0.04205
 Rotational constants (GHZ):           3.15422     1.10452     0.87620
 Zero-point vibrational energy     430564.9 (Joules/Mol)
                                  102.90747 (Kcal/Mol)
 Warning -- explicit consideration of  13 degrees of freedom as
           vibrations may cause significant error
 Vibrational temperatures:     79.97   107.10   153.63   248.98   276.94
          (Kelvin)            342.56   367.31   487.37   555.01   597.00
                              639.58   732.10   854.19   964.07  1099.01
                             1263.87  1292.90  1341.14  1449.19  1509.19
                             1571.48  1626.14  1647.07  1675.82  1762.19
                             1793.59  1855.37  1919.77  1930.84  2024.91
                             2038.71  2076.45  2115.43  2135.67  2148.95
                             2156.79  2159.35  2162.75  2181.59  3376.01
                             4180.70  4235.03  4364.89  4371.16  4406.08
                             4428.85  4461.38  4466.84  4476.81  4530.27
                             4928.08

 Zero-point correction=                           0.163993 (Hartree/Particle)
 Thermal correction to Energy=                    0.173602
 Thermal correction to Enthalpy=                  0.174547
 Thermal correction to Gibbs Free Energy=         0.128966
 Sum of electronic and zero-point Energies=           -361.206358
 Sum of electronic and thermal Energies=              -361.196749
 Sum of electronic and thermal Enthalpies=            -361.195805
 Sum of electronic and thermal Free Energies=         -361.241385

                     E (Thermal)             CV                S
                      KCal/Mol        Cal/Mol-Kelvin    Cal/Mol-Kelvin
 Total                  108.937             33.706             95.932
 Electronic               0.000              0.000              0.000
 Translational            0.889              2.981             40.085
 Rotational               0.889              2.981             29.045
 Vibrational            107.160             27.745             26.802
 Vibration     1          0.596              1.975              4.608
 Vibration     2          0.599              1.966              4.032
 Vibration     3          0.606              1.944              3.327
 Vibration     4          0.627              1.876              2.402
 Vibration     5          0.634              1.850              2.204
 Vibration     6          0.656              1.782              1.817
 Vibration     7          0.666              1.754              1.694
 Vibration     8          0.719              1.598              1.218
 Vibration     9          0.754              1.501              1.017
 Vibration    10          0.778              1.438              0.909
 Vibration    11          0.804              1.373              0.812
 Vibration    12          0.864              1.230              0.636
 Vibration    13          0.951              1.045              0.461

 Optimization completed.
    -- Stationary point found.
 Normal termination of Gaussian 16 at Tue Jun  1 15:51:24 2021.
