 Gaussian 16, Revision A.03,
 Gaussian 16:  ES64L-G16RevA.03 25-Dec-2016

 -----------------------------
 # opt freq b3lyp/6-31g(2df,p)
 -----------------------------

 -------------------
 Title Card Required
 -------------------
 Symbolic Z-matrix:
 Charge =  0 Multiplicity = 1

 SCF Done:  E(RB3LYP) =  -403.105063867     A.U. after   12 cycles
 SCF Done:  E(RB3LYP) =  -403.109825471     A.U. after   11 cycles
 SCF Done:  E(RB3LYP) =  -403.110996026     A.U. after   11 cycles
 SCF Done:  E(RB3LYP) =  -403.111375736     A.U. after   10 cycles
 SCF Done:  E(RB3LYP) =  -403.111550360     A.U. after   10 cycles
 SCF Done:  E(RB3LYP) =  -403.111630224     A.U. after   10 cycles
 SCF Done:  E(RB3LYP) =  -403.111672215     A.U. after    9 cycles
 SCF Done:  E(RB3LYP) =  -403.111722238     A.U. after    9 cycles
 SCF Done:  E(RB3LYP) =  -403.111737040     A.U. after    9 cycles
 SCF Done:  E(RB3LYP) =  -403.111741653     A.U. after    9 cycles
 SCF Done:  E(RB3LYP) =  -403.111742896     A.U. after    7 cycles
 SCF Done:  E(RB3LYP) =  -403.111743868     A.U. after    8 cycles
 Optimization completed.
    -- Stationary point found.
 Normal termination of Gaussian 16 at Tue Jun  1 14:06:27 2021.

 ----------------------------------------------------------------------
 #N Geom=AllCheck Guess=TCheck SCRF=Check GenChk RB3LYP/6-31G(2df,p) Fr
 eq
 ----------------------------------------------------------------------

 Structure from the checkpoint file:  "CCCNCpCpNpCpN.chk"
 -------------------
 Title Card Required
 -------------------
 Charge =  0 Multiplicity = 1

                         Standard orientation:
 ---------------------------------------------------------------------
 Center     Atomic      Atomic             Coordinates (Angstroms)
 Number     Number       Type             X           Y           Z
 ---------------------------------------------------------------------
      1          6           0        4.135260   -0.007422    0.163332
      2          6           0        2.768795   -0.627144   -0.137577
      3          6           0        1.609984    0.335288    0.125320
      4          7           0        0.336351   -0.288327   -0.233866
      5          6           0       -0.860312    0.422533    0.204920
      6          6           0       -0.855018    1.859372   -0.320681
      7          7           0       -2.065337   -0.277964   -0.285202
      8          6           0       -2.035473   -1.724799   -0.117987
      9          7           0       -3.257159    0.207722    0.330507
     10          1           0        4.943514   -0.719616   -0.027467
     11          1           0        4.209175    0.306759    1.210318
     12          1           0        4.315992    0.874937   -0.460325
     13          1           0        2.633941   -1.530050    0.474570
     14          1           0        2.720743   -0.953148   -1.183024
     15          1           0        1.752536    1.235660   -0.482474
     16          1           0        1.640790    0.662595    1.183233
     17          1           0        0.327758   -1.213129    0.182578
     18          1           0       -0.911384    0.463240    1.324646
     19          1           0       -0.725621    1.852431   -1.406500
     20          1           0       -0.054079    2.446811    0.133992
     21          1           0       -1.795152    2.359533   -0.079578
     22          1           0       -1.265348   -2.159190   -0.759049
     23          1           0       -3.006102   -2.115096   -0.425136
     24          1           0       -1.858566   -2.046061    0.927976
     25          1           0       -3.514379    1.079662   -0.119240
     26          1           0       -3.090217    0.417680    1.321446
 ---------------------------------------------------------------------

 SCF Done:  E(RB3LYP) =  -403.111743868     A.U. after    1 cycles

 The electronic state is 1-A.
 Alpha  occ. eigenvalues --  -14.33672 -14.32945 -14.31063 -10.23282 -10.20276
 Alpha  occ. eigenvalues --  -10.19013 -10.18157 -10.17564 -10.17071  -0.96840
 Alpha  occ. eigenvalues --   -0.89951  -0.78958  -0.76338  -0.73501  -0.66775
 Alpha  occ. eigenvalues --   -0.64135  -0.58985  -0.56715  -0.50142  -0.49697
 Alpha  occ. eigenvalues --   -0.47806  -0.46435  -0.44378  -0.42902  -0.41234
 Alpha  occ. eigenvalues --   -0.39834  -0.39158  -0.38278  -0.36869  -0.35963
 Alpha  occ. eigenvalues --   -0.35243  -0.34850  -0.33176  -0.33008  -0.24701
 Alpha  occ. eigenvalues --   -0.22991  -0.21114
 Alpha virt. eigenvalues --    0.07440   0.09240   0.10072   0.11731   0.12198
 Alpha virt. eigenvalues --    0.13783   0.15058   0.15810   0.16161   0.16554
 Alpha virt. eigenvalues --    0.17241   0.17657   0.18236   0.18662   0.19154

 Mulliken charges:
               1
     1  C   -0.380710
     2  C   -0.186074
     3  C   -0.105718
     4  N   -0.318431
     5  C    0.132477
     6  C   -0.388621
     7  N   -0.076359
     8  C   -0.306459
     9  N   -0.470830
    10  H    0.114974
    11  H    0.115168
    12  H    0.117086
    13  H    0.090903
    14  H    0.110797
    15  H    0.106853
    16  H    0.073095
    17  H    0.215361
    18  H    0.019515
    19  H    0.130818
    20  H    0.117814
    21  H    0.099643
    22  H    0.127265
    23  H    0.132009
    24  H    0.079060
    25  H    0.243201
    26  H    0.207161
 Sum of Mulliken charges =  -0.00000

 Dipole moment (field-independent basis, Debye):
    X=              1.1667    Y=              0.6187    Z=              1.3855  Tot=              1.9140
 Quadrupole moment (field-independent basis, Debye-Ang):
   XX=            -61.4606   YY=            -55.5599   ZZ=            -59.6811
   XY=             -3.6028   XZ=             -1.6607   YZ=             -0.3893

  Exact polarizability: 110.194  -0.673  89.472  -1.492   0.634  75.900
 Approx polarizability: 129.762  -1.515 125.003  -1.662   1.469 120.240

                      1                      2                      3
                      A                      A                      A
 Frequencies --     52.7531                67.5964                96.1350
 Red. masses --      2.7382                 2.0764                 2.1385
 Frc consts  --      0.0045                 0.0056                 0.0116
 IR Inten    --      0.2789                 0.7395                 0.1289

                      4                      5                      6
                      A                      A                      A
 Frequencies --    109.8424               140.6365               218.8912
 Red. masses --      3.3061                 2.1877                 1.2779
 Frc consts  --      0.0235                 0.0255                 0.0361
 IR Inten    --      0.2810                 2.2171                 0.1960

                      7                      8                      9
                      A                      A                      A
 Frequencies --    237.4863               246.7247               290.1225
 Red. masses --      1.1899                 1.7531                 1.2956
 Frc consts  --      0.0395                 0.0629                 0.0643
 IR Inten    --      0.0353                 0.8074                12.3691

                     10                     11                     12
                      A                      A                      A
 Frequencies --    310.9489               322.0729               355.9144
 Red. masses --      1.4600                 2.9123                 2.1725
 Frc consts  --      0.0832                 0.1780                 0.1621
 IR Inten    --     13.1667                 0.7801                 4.5351

                     13                     14                     15
                      A                      A                      A
 Frequencies --    382.3958               426.5538               479.1381
 Red. masses --      2.0055                 2.5801                 2.7660
 Frc consts  --      0.1728                 0.2766                 0.3741
 IR Inten    --      5.1972                 1.8962                 1.9145

                     16                     17                     18
                      A                      A                      A
 Frequencies --    524.0054               575.3300               764.4893
 Red. masses --      2.5002                 2.9107                 1.0904
 Frc consts  --      0.4045                 0.5676                 0.3755
 IR Inten    --     17.6467                 5.8355                 2.4552

                     19                     20                     21
                      A                      A                      A
 Frequencies --    792.7858               811.8894               895.8977
 Red. masses --      2.5221                 1.3799                 1.7251
 Frc consts  --      0.9340                 0.5359                 0.8158
 IR Inten    --     12.6366                57.8640                 3.5180

                     22                     23                     24
                      A                      A                      A
 Frequencies --    904.6328               918.6643               926.5398
 Red. masses --      1.6066                 1.7196                 1.6882
 Frc consts  --      0.7746                 0.8551                 0.8539
 IR Inten    --      2.5352                27.3085                50.6174

                     25                     26                     27
                      A                      A                      A
 Frequencies --   1010.7292              1043.0504              1079.0328
 Red. masses --      1.8034                 2.7806                 2.2670
 Frc consts  --      1.0855                 1.7824                 1.5551
 IR Inten    --     81.1290                 6.8085                23.0185

                     28                     29                     30
                      A                      A                      A
 Frequencies --   1087.8199              1097.1002              1144.4733
 Red. masses --      1.8008                 1.6349                 1.3925
 Frc consts  --      1.2555                 1.1594                 1.0746
 IR Inten    --      5.9837                 4.7346                 4.3278

                     31                     32                     33
                      A                      A                      A
 Frequencies --   1153.2234              1175.1365              1201.1382
 Red. masses --      1.9249                 2.2213                 2.3778
 Frc consts  --      1.5083                 1.8073                 2.0212
 IR Inten    --      3.1531                 9.4434                48.3998

                     34                     35                     36
                      A                      A                      A
 Frequencies --   1233.2721              1242.5859              1267.3952
 Red. masses --      2.8788                 2.2519                 1.2916
 Frc consts  --      2.5797                 2.0485                 1.2223
 IR Inten    --     11.0515                 7.4322                16.6674

                     37                     38                     39
                      A                      A                      A
 Frequencies --   1315.7956              1320.4907              1329.5942
 Red. masses --      1.2482                 1.1541                 1.2407
 Frc consts  --      1.2733                 1.1857                 1.2923
 IR Inten    --     12.4316                 9.7519                 8.8992

                     40                     41                     42
                      A                      A                      A
 Frequencies --   1369.8528              1378.1404              1401.7682
 Red. masses --      1.2674                 1.3647                 1.3711
 Frc consts  --      1.4013                 1.5271                 1.5873
 IR Inten    --     33.8938                16.5666                30.7778

                     43                     44                     45
                      A                      A                      A
 Frequencies --   1410.5012              1414.8287              1441.1096
 Red. masses --      1.4000                 1.2701                 1.2106
 Frc consts  --      1.6410                 1.4980                 1.4813
 IR Inten    --      4.9094                 3.5671                 9.4370

                     46                     47                     48
                      A                      A                      A
 Frequencies --   1488.9462              1491.2559              1497.0585
 Red. masses --      1.0604                 1.0595                 1.0905
 Frc consts  --      1.3851                 1.3882                 1.4400
 IR Inten    --      0.7830                 3.6737                30.1669

                     49                     50                     51
                      A                      A                      A
 Frequencies --   1499.6482              1500.5065              1502.4202
 Red. masses --      1.0520                 1.0475                 1.0496
 Frc consts  --      1.3940                 1.3895                 1.3959
 IR Inten    --      3.6003                13.1464                 6.3710

                     52                     53                     54
                      A                      A                      A
 Frequencies --   1506.3894              1524.2244              1527.5200
 Red. masses --      1.0713                 1.1367                 1.1224
 Frc consts  --      1.4323                 1.5559                 1.5431
 IR Inten    --      4.5149                 4.4700                22.5735

                     55                     56                     57
                      A                      A                      A
 Frequencies --   1668.5106              2743.7480              2907.1306
 Red. masses --      1.0828                 1.0768                 1.0729
 Frc consts  --      1.7761                 4.7760                 5.3425
 IR Inten    --     13.5950               114.2101                63.5270

                     58                     59                     60
                      A                      A                      A
 Frequencies --   2908.8565              3009.5288              3031.2610
 Red. masses --      1.0623                 1.0662                 1.0361
 Frc consts  --      5.2957                 5.6899                 5.6094
 IR Inten    --     89.1564                21.1810                26.6415

                     61                     62                     63
                      A                      A                      A
 Frequencies --   3048.8821              3054.9658              3064.8717
 Red. masses --      1.0714                 1.0478                 1.0946
 Frc consts  --      5.8681                 5.7617                 6.0578
 IR Inten    --      6.7700                23.8285                23.7891

                     64                     65                     66
                      A                      A                      A
 Frequencies --   3092.1768              3098.0865              3105.4573
 Red. masses --      1.0696                 1.1020                 1.1007
 Frc consts  --      6.0253                 6.2318                 6.2543
 IR Inten    --     24.4549                52.7523                33.5503

                     67                     68                     69
                      A                      A                      A
 Frequencies --   3127.7941              3133.2229              3144.6974
 Red. masses --      1.1000                 1.1022                 1.1019
 Frc consts  --      6.3406                 6.3753                 6.4205
 IR Inten    --     27.3997                16.6783                15.7158

                     70                     71                     72
                      A                      A                      A
 Frequencies --   3344.2851              3523.6152              3549.2507
 Red. masses --      1.0582                 1.0729                 1.0812
 Frc consts  --      6.9730                 7.8481                 8.0244
 IR Inten    --     23.6658                 0.0517                 0.3895

 - Thermochemistry -
 -------------------
 Temperature   298.150 Kelvin.  Pressure   1.00000 Atm.
 Atom     1 has atomic number  6 and mass  12.00000

 Molecular mass:   131.14225 amu.
 Principal axes and moments of inertia in atomic units:
                           1         2         3
     Eigenvalues --   516.779432664.081593050.54262
           X            1.00000  -0.00089  -0.00133
           Y            0.00089   0.99999  -0.00385
           Z            0.00133   0.00385   0.99999
 This molecule is an asymmetric top.
 Rotational symmetry number  1.
 Warning -- assumption of classical behavior for rotation
           may cause significant error
 Rotational temperatures (Kelvin)      0.16760     0.03251     0.02839
 Rotational constants (GHZ):           3.49229     0.67743     0.59161
 Zero-point vibrational energy     628415.1 (Joules/Mol)
                                  150.19481 (Kcal/Mol)
 Warning -- explicit consideration of  17 degrees of freedom as
           vibrations may cause significant error
 Vibrational temperatures:     75.90    97.26   138.32   158.04   202.34
          (Kelvin)            314.94   341.69   354.98   417.42   447.39
                              463.39   512.08   550.18   613.72   689.37
                              753.93   827.77  1099.93  1140.64  1168.13
                             1289.00  1301.56  1321.75  1333.08  1454.21
                             1500.72  1552.49  1565.13  1578.48  1646.64
                             1659.23  1690.76  1728.17  1774.40  1787.80
                             1823.50  1893.14  1899.89  1912.99  1970.91
                             1982.84  2016.83  2029.40  2035.62  2073.44
                             2142.26  2145.58  2153.93  2157.66  2158.89
                             2161.65  2167.36  2193.02  2197.76  2400.61
                             3947.64  4182.71  4185.20  4330.04  4361.31
                             4386.66  4395.41  4409.67  4448.95  4457.46
                             4468.06  4500.20  4508.01  4524.52  4811.68
                             5069.70  5106.58

 Zero-point correction=                           0.239351 (Hartree/Particle)
 Thermal correction to Energy=                    0.251111
 Thermal correction to Enthalpy=                  0.252055
 Thermal correction to Gibbs Free Energy=         0.201915
 Sum of electronic and zero-point Energies=           -402.872393
 Sum of electronic and thermal Energies=              -402.860633
 Sum of electronic and thermal Enthalpies=            -402.859689
 Sum of electronic and thermal Free Energies=         -402.909829

                     E (Thermal)             CV                S
                      KCal/Mol        Cal/Mol-Kelvin    Cal/Mol-Kelvin
 Total                  157.575             42.816            105.529
 Electronic               0.000              0.000              0.000
 Translational            0.889              2.981             40.526
 Rotational               0.889              2.981             29.819
 Vibrational            155.797             36.855             35.184
 Vibration     1          0.596              1.977              4.711
 Vibration     2          0.598              1.970              4.222
 Vibration     3          0.603              1.952              3.531
 Vibration     4          0.606              1.941              3.272
 Vibration     5          0.615              1.913              2.795
 Vibration     6          0.647              1.812              1.968
 Vibration     7          0.656              1.783              1.822
 Vibration     8          0.661              1.768              1.754
 Vibration     9          0.686              1.692              1.473
 Vibration    10          0.700              1.653              1.357
 Vibration    11          0.707              1.631              1.300
 Vibration    12          0.731              1.563              1.140
 Vibration    13          0.752              1.508              1.030
 Vibration    14          0.788              1.412              0.870
 Vibration    15          0.836              1.296              0.712
 Vibration    16          0.879              1.197              0.601
 Vibration    17          0.932              1.085              0.494

                           ! Non-Optimized Parameters !
 Normal termination of Gaussian 16 at Tue Jun  1 14:43:59 2021.
