 Gaussian 16, Revision A.03,
 Gaussian 16:  ES64L-G16RevA.03 25-Dec-2016

 -----------------------------
 # opt freq b3lyp/6-31g(2df,p)
 -----------------------------

 -------------------
 Title Card Required
 -------------------
 Symbolic Z-matrix:
 Charge =  0 Multiplicity = 1

 SCF Done:  E(RB3LYP) =  -401.919106981     A.U. after   13 cycles
 SCF Done:  E(RB3LYP) =  -401.927139773     A.U. after   12 cycles
 SCF Done:  E(RB3LYP) =  -401.929577844     A.U. after   12 cycles
 SCF Done:  E(RB3LYP) =  -401.931627253     A.U. after   12 cycles
 SCF Done:  E(RB3LYP) =  -401.932759434     A.U. after   11 cycles
 SCF Done:  E(RB3LYP) =  -401.933594167     A.U. after   12 cycles
 SCF Done:  E(RB3LYP) =  -401.933933763     A.U. after   11 cycles
 SCF Done:  E(RB3LYP) =  -401.934063544     A.U. after   11 cycles
 SCF Done:  E(RB3LYP) =  -401.934119502     A.U. after   12 cycles
 SCF Done:  E(RB3LYP) =  -401.934202612     A.U. after   10 cycles
 SCF Done:  E(RB3LYP) =  -401.934360298     A.U. after   10 cycles
 SCF Done:  E(RB3LYP) =  -401.934405910     A.U. after   11 cycles
 SCF Done:  E(RB3LYP) =  -401.934421557     A.U. after   10 cycles
 SCF Done:  E(RB3LYP) =  -401.934416553     A.U. after   11 cycles
 SCF Done:  E(RB3LYP) =  -401.934429236     A.U. after   10 cycles
 SCF Done:  E(RB3LYP) =  -401.934429714     A.U. after    8 cycles
 SCF Done:  E(RB3LYP) =  -401.934429844     A.U. after    7 cycles
 SCF Done:  E(RB3LYP) =  -401.934430345     A.U. after    8 cycles
 SCF Done:  E(RB3LYP) =  -401.934430385     A.U. after    7 cycles
 Optimization completed.
    -- Stationary point found.
 Normal termination of Gaussian 16 at Tue Jun  1 00:48:30 2021.

 ----------------------------------------------------------------------
 #N Geom=AllCheck Guess=TCheck SCRF=Check GenChk RB3LYP/6-31G(2df,p) Fr
 eq
 ----------------------------------------------------------------------

 Structure from the checkpoint file:  "CCCNpCpCNCdN.chk"
 -------------------
 Title Card Required
 -------------------
 Charge =  0 Multiplicity = 1

                         Standard orientation:
 ---------------------------------------------------------------------
 Center     Atomic      Atomic             Coordinates (Angstroms)
 Number     Number       Type             X           Y           Z
 ---------------------------------------------------------------------
      1          6           0       -4.154509   -0.310216   -0.126551
      2          6           0       -2.788962    0.287264   -0.478208
      3          6           0       -1.657003   -0.350245    0.333489
      4          7           0       -0.323565    0.090620   -0.073132
      5          6           0       -0.053998    1.481810    0.266945
      6          6           0        0.722898   -0.801796    0.410943
      7          7           0        1.965878   -0.631541   -0.300419
      8          6           0        3.104763   -0.082935    0.233749
      9          7           0        4.205395    0.213862   -0.337846
     10          1           0       -4.953053    0.161135   -0.706866
     11          1           0       -4.389057   -0.170582    0.934575
     12          1           0       -4.183937   -1.386008   -0.332505
     13          1           0       -2.816371    1.368965   -0.305725
     14          1           0       -2.573662    0.145754   -1.543673
     15          1           0       -1.702160   -1.437269    0.191678
     16          1           0       -1.836141   -0.169999    1.412810
     17          1           0       -0.752774    2.143567   -0.249228
     18          1           0        0.954571    1.751273   -0.054518
     19          1           0       -0.133649    1.677639    1.353589
     20          1           0        0.356839   -1.827932    0.285040
     21          1           0        0.946886   -0.665924    1.485449
     22          1           0        1.921984   -0.737371   -1.303842
     23          1           0        3.014827    0.089535    1.310006
     24          1           0        4.172608    0.003339   -1.339222
 ---------------------------------------------------------------------

 SCF Done:  E(RB3LYP) =  -401.934430385     A.U. after    1 cycles

 The electronic state is 1-A.
 Alpha  occ. eigenvalues --  -14.34822 -14.32745 -14.28172 -10.24844 -10.24223
 Alpha  occ. eigenvalues --  -10.21065 -10.20270 -10.18475 -10.17952  -0.96239
 Alpha  occ. eigenvalues --   -0.91535  -0.84746  -0.77987  -0.70946  -0.69083
 Alpha  occ. eigenvalues --   -0.62102  -0.61868  -0.57988  -0.51258  -0.49691
 Alpha  occ. eigenvalues --   -0.49144  -0.47825  -0.44167  -0.43125  -0.40638
 Alpha  occ. eigenvalues --   -0.39892  -0.39650  -0.38450  -0.37509  -0.35368
 Alpha  occ. eigenvalues --   -0.34955  -0.34086  -0.33288  -0.25494  -0.22940
 Alpha  occ. eigenvalues --   -0.22223
 Alpha virt. eigenvalues --    0.04436   0.08017   0.08390   0.09925   0.11264
 Alpha virt. eigenvalues --    0.12374   0.13476   0.14421   0.15041   0.15584
 Alpha virt. eigenvalues --    0.15766   0.16679   0.18354   0.18560   0.18965

 Mulliken charges:
               1
     1  C   -0.379846
     2  C   -0.181604
     3  C   -0.112738
     4  N   -0.065843
     5  C   -0.340369
     6  C   -0.120987
     7  N   -0.256793
     8  C    0.130808
     9  N   -0.494026
    10  H    0.116432
    11  H    0.117012
    12  H    0.115176
    13  H    0.101398
    14  H    0.104529
    15  H    0.095220
    16  H    0.076706
    17  H    0.125452
    18  H    0.137056
    19  H    0.092090
    20  H    0.104784
    21  H    0.096125
    22  H    0.235894
    23  H    0.108433
    24  H    0.195091
 Sum of Mulliken charges =  -0.00000

 Dipole moment (field-independent basis, Debye):
    X=             -3.6027    Y=             -0.8853    Z=             -0.3181  Tot=              3.7235
 Quadrupole moment (field-independent basis, Debye-Ang):
   XX=            -76.6761   YY=            -56.8206   ZZ=            -53.9636
   XY=             -3.2979   XZ=             -2.5105   YZ=              0.8953

  Exact polarizability: 121.419   6.027  74.327  -3.965   0.439  77.711
 Approx polarizability: 146.316  11.182 110.502  -6.790   1.065 119.965

                      1                      2                      3
                      A                      A                      A
 Frequencies --     33.6842                44.4634                65.1568
 Red. masses --      5.9136                 3.8849                 1.6727
 Frc consts  --      0.0040                 0.0045                 0.0042
 IR Inten    --      1.3121                 1.6973                 0.2571

                      4                      5                      6
                      A                      A                      A
 Frequencies --    115.0294               148.2090               177.5788
 Red. masses --      2.3970                 1.6215                 2.8781
 Frc consts  --      0.0187                 0.0210                 0.0535
 IR Inten    --      1.1432                 7.4754                 2.3014

                      7                      8                      9
                      A                      A                      A
 Frequencies --    229.9988               242.5371               302.1946
 Red. masses --      1.1259                 1.1696                 2.9939
 Frc consts  --      0.0351                 0.0405                 0.1611
 IR Inten    --      1.7700                 2.1528                 4.1469

                     10                     11                     12
                      A                      A                      A
 Frequencies --    309.5812               353.5737               374.1601
 Red. masses --      3.5685                 2.5578                 3.0528
 Frc consts  --      0.2015                 0.1884                 0.2518
 IR Inten    --      1.2411                 5.3711                 4.0015

                     13                     14                     15
                      A                      A                      A
 Frequencies --    385.4822               495.8155               560.5281
 Red. masses --      1.9789                 1.2955                 2.6682
 Frc consts  --      0.1733                 0.1876                 0.4939
 IR Inten    --      1.2041                54.5980                18.5959

                     16                     17                     18
                      A                      A                      A
 Frequencies --    628.7290               757.7461               828.1858
 Red. masses --      2.8016                 1.0975                 1.9283
 Frc consts  --      0.6525                 0.3713                 0.7792
 IR Inten    --      4.9944                 2.2302                43.8832

                     19                     20                     21
                      A                      A                      A
 Frequencies --    857.9229               890.7672               914.7024
 Red. masses --      3.3301                 1.2476                 1.8674
 Frc consts  --      1.4441                 0.5832                 0.9205
 IR Inten    --     13.7495                 0.7818                 2.5433

                     22                     23                     24
                      A                      A                      A
 Frequencies --    996.3473              1030.7631              1055.7562
 Red. masses --      2.0878                 2.3531                 2.4697
 Frc consts  --      1.2211                 1.4730                 1.6219
 IR Inten    --      7.4837                75.5793                42.0662

                     25                     26                     27
                      A                      A                      A
 Frequencies --   1085.4712              1097.5371              1111.5619
 Red. masses --      1.1403                 1.8830                 1.8332
 Frc consts  --      0.7916                 1.3364                 1.3345
 IR Inten    --     42.8852                54.8916                42.1003

                     28                     29                     30
                      A                      A                      A
 Frequencies --   1130.8932              1162.8248              1190.5282
 Red. masses --      1.4463                 1.6397                 2.5471
 Frc consts  --      1.0898                 1.3063                 2.1270
 IR Inten    --     10.8590                18.0743                34.5874

                     31                     32                     33
                      A                      A                      A
 Frequencies --   1209.4577              1244.2671              1288.8243
 Red. masses --      1.9480                 1.7888                 1.7814
 Frc consts  --      1.6789                 1.6317                 1.7434
 IR Inten    --      9.0989                 6.7645                96.0941

                     34                     35                     36
                      A                      A                      A
 Frequencies --   1292.4758              1332.5940              1341.5489
 Red. masses --      1.4217                 1.2679                 1.5087
 Frc consts  --      1.3993                 1.3266                 1.5998
 IR Inten    --     50.8220               107.8724                25.6018

                     37                     38                     39
                      A                      A                      A
 Frequencies --   1347.1737              1401.9623              1412.7191
 Red. masses --      1.2725                 1.3552                 1.2166
 Frc consts  --      1.3606                 1.5693                 1.4306
 IR Inten    --     47.0510                24.1243                 6.1481

                     40                     41                     42
                      A                      A                      A
 Frequencies --   1419.0835              1439.5053              1459.0926
 Red. masses --      1.2165                 1.2126                 1.3085
 Frc consts  --      1.4433                 1.4804                 1.6413
 IR Inten    --      4.7761                 3.5141                 2.0305

                     43                     44                     45
                      A                      A                      A
 Frequencies --   1481.4402              1488.3355              1495.4557
 Red. masses --      1.3260                 1.1772                 1.0686
 Frc consts  --      1.7147                 1.5364                 1.4080
 IR Inten    --     13.0315                 8.5614                 4.9390

                     46                     47                     48
                      A                      A                      A
 Frequencies --   1499.4283              1501.4269              1502.1190
 Red. masses --      1.0476                 1.0519                 1.0523
 Frc consts  --      1.3877                 1.3972                 1.3990
 IR Inten    --      6.1768                 5.3738                 5.3981

                     49                     50                     51
                      A                      A                      A
 Frequencies --   1506.1314              1517.0907              1726.1203
 Red. masses --      1.0801                 1.1021                 5.8912
 Frc consts  --      1.4435                 1.4944                10.3419
 IR Inten    --      3.0865                 7.8658               400.5250

                     52                     53                     54
                      A                      A                      A
 Frequencies --   2899.4033              2925.4126              2936.1778
 Red. masses --      1.0717                 1.0626                 1.0688
 Frc consts  --      5.3081                 5.3579                 5.4288
 IR Inten    --     52.3869                48.3686                90.3834

                     55                     56                     57
                      A                      A                      A
 Frequencies --   3029.8925              3030.7246              3035.1942
 Red. masses --      1.0609                 1.0609                 1.0674
 Frc consts  --      5.7380                 5.7411                 5.7939
 IR Inten    --     28.3539                 1.4448                 8.1626

                     58                     59                     60
                      A                      A                      A
 Frequencies --   3041.9283              3069.9713              3089.4630
 Red. masses --      1.0804                 1.1013                 1.0710
 Frc consts  --      5.8904                 6.1151                 6.0231
 IR Inten    --     73.6400                 9.5474                22.8954

                     61                     62                     63
                      A                      A                      A
 Frequencies --   3099.1870              3099.4485              3106.5520
 Red. masses --      1.0979                 1.0908                 1.1004
 Frc consts  --      6.2130                 6.1738                 6.2569
 IR Inten    --     26.3644                56.2171                33.3578

                     64                     65                     66
                      A                      A                      A
 Frequencies --   3129.9598              3426.1427              3603.5275
 Red. masses --      1.1024                 1.0735                 1.0752
 Frc consts  --      6.3631                 7.4247                 8.2259
 IR Inten    --     20.4211                 8.1307                12.2664

 - Thermochemistry -
 -------------------
 Temperature   298.150 Kelvin.  Pressure   1.00000 Atm.
 Atom     1 has atomic number  6 and mass  12.00000

 Molecular mass:   129.12660 amu.
 Principal axes and moments of inertia in atomic units:
                           1         2         3
     Eigenvalues --   325.961503212.198833350.73811
           X            1.00000   0.00198  -0.00008
           Y           -0.00198   0.99998   0.00617
           Z            0.00009  -0.00617   0.99998
 This molecule is an asymmetric top.
 Rotational symmetry number  1.
 Rotational temperatures (Kelvin)      0.26572     0.02696     0.02585
 Rotational constants (GHZ):           5.53667     0.56184     0.53861
 Zero-point vibrational energy     568267.9 (Joules/Mol)
                                  135.81928 (Kcal/Mol)
 Warning -- explicit consideration of  15 degrees of freedom as
           vibrations may cause significant error
 Vibrational temperatures:     48.46    63.97    93.75   165.50   213.24
          (Kelvin)            255.50   330.92   348.96   434.79   445.42
                              508.71   538.33   554.62   713.37   806.47
                              904.60  1090.23  1191.57  1234.36  1281.62
                             1316.05  1433.52  1483.04  1519.00  1561.75
                             1579.11  1599.29  1627.10  1673.05  1712.90
                             1740.14  1790.22  1854.33  1859.58  1917.31
                             1930.19  1938.28  2017.11  2032.59  2041.74
                             2071.13  2099.31  2131.46  2141.38  2151.63
                             2157.34  2160.22  2161.21  2166.99  2182.76
                             2483.50  4171.59  4209.02  4224.50  4359.34
                             4360.54  4366.97  4376.66  4417.00  4445.05
                             4459.04  4459.42  4469.64  4503.31  4929.46
                             5184.67

 Zero-point correction=                           0.216442 (Hartree/Particle)
 Thermal correction to Energy=                    0.227876
 Thermal correction to Enthalpy=                  0.228820
 Thermal correction to Gibbs Free Energy=         0.178270
 Sum of electronic and zero-point Energies=           -401.717989
 Sum of electronic and thermal Energies=              -401.706554
 Sum of electronic and thermal Enthalpies=            -401.705610
 Sum of electronic and thermal Free Energies=         -401.756160

                     E (Thermal)             CV                S
                      KCal/Mol        Cal/Mol-Kelvin    Cal/Mol-Kelvin
 Total                  142.994             40.104            106.391
 Electronic               0.000              0.000              0.000
 Translational            0.889              2.981             40.480
 Rotational               0.889              2.981             29.641
 Vibrational            141.217             34.142             36.271
 Vibration     1          0.594              1.983              5.600
 Vibration     2          0.595              1.980              5.050
 Vibration     3          0.597              1.971              4.295
 Vibration     4          0.608              1.937              3.182
 Vibration     5          0.618              1.905              2.695
 Vibration     6          0.628              1.870              2.354
 Vibration     7          0.652              1.795              1.879
 Vibration     8          0.659              1.775              1.784
 Vibration     9          0.694              1.670              1.405
 Vibration    10          0.699              1.655              1.365
 Vibration    11          0.730              1.568              1.150
 Vibration    12          0.745              1.525              1.063
 Vibration    13          0.754              1.501              1.018
 Vibration    14          0.851              1.259              0.669
 Vibration    15          0.916              1.117              0.523

 Optimization completed.
    -- Stationary point found.
 Normal termination of Gaussian 16 at Tue Jun  1 01:19:37 2021.
