 Gaussian 16, Revision A.03,
 Gaussian 16:  ES64L-G16RevA.03 25-Dec-2016

 -----------------------------
 # opt freq b3lyp/6-31g(2df,p)
 -----------------------------

 -------------------
 Title Card Required
 -------------------
 Symbolic Z-matrix:
 Charge =  0 Multiplicity = 1

 SCF Done:  E(RB3LYP) =  -417.880348833     A.U. after   13 cycles
 SCF Done:  E(RB3LYP) =  -417.887247809     A.U. after   13 cycles
 SCF Done:  E(RB3LYP) =  -417.888523682     A.U. after   12 cycles
 SCF Done:  E(RB3LYP) =  -417.888819308     A.U. after   12 cycles
 SCF Done:  E(RB3LYP) =  -417.889111983     A.U. after   12 cycles
 SCF Done:  E(RB3LYP) =  -417.889443163     A.U. after   13 cycles
 SCF Done:  E(RB3LYP) =  -417.891794982     A.U. after   15 cycles
 SCF Done:  E(RB3LYP) =  -417.893207035     A.U. after   13 cycles
 SCF Done:  E(RB3LYP) =  -417.893268926     A.U. after   13 cycles
 SCF Done:  E(RB3LYP) =  -417.894921195     A.U. after   13 cycles
 SCF Done:  E(RB3LYP) =  -417.895862303     A.U. after   14 cycles
 SCF Done:  E(RB3LYP) =  -417.896251318     A.U. after   11 cycles
 SCF Done:  E(RB3LYP) =  -417.889682988     A.U. after   15 cycles
 SCF Done:  E(RB3LYP) =  -417.896340198     A.U. after   13 cycles
 SCF Done:  E(RB3LYP) =  -417.896366870     A.U. after   13 cycles
 SCF Done:  E(RB3LYP) =  -417.896420205     A.U. after   12 cycles
 SCF Done:  E(RB3LYP) =  -417.896423046     A.U. after    9 cycles
 SCF Done:  E(RB3LYP) =  -417.896423630     A.U. after    9 cycles
 SCF Done:  E(RB3LYP) =  -417.896424104     A.U. after    9 cycles
 Optimization completed.
    -- Stationary point found.
 Normal termination of Gaussian 16 at Mon May 31 20:43:13 2021.

 ----------------------------------------------------------------------
 #N Geom=AllCheck Guess=TCheck SCRF=Check GenChk RB3LYP/6-31G(2df,p) Fr
 eq
 ----------------------------------------------------------------------

 Structure from the checkpoint file:  "CCCNNpCpCNdN.chk"
 -------------------
 Title Card Required
 -------------------
 Charge =  0 Multiplicity = 1

                         Standard orientation:
 ---------------------------------------------------------------------
 Center     Atomic      Atomic             Coordinates (Angstroms)
 Number     Number       Type             X           Y           Z
 ---------------------------------------------------------------------
      1          6           0       -4.036788   -0.784948   -0.240182
      2          6           0       -2.943538    0.098293    0.366136
      3          6           0       -1.576508   -0.134814   -0.277253
      4          7           0       -0.580251    0.756103    0.309340
      5          7           0        0.713498    0.578028   -0.254169
      6          6           0        1.442788    1.837613   -0.211503
      7          6           0        1.447917   -0.506935    0.374881
      8          7           0        2.611839   -0.875887   -0.448718
      9          7           0        3.634256   -1.043069    0.234421
     10          1           0       -5.003811   -0.600946    0.237151
     11          1           0       -3.803265   -1.848523   -0.119673
     12          1           0       -4.152416   -0.591430   -1.312128
     13          1           0       -2.874841   -0.095146    1.445814
     14          1           0       -3.206155    1.156894    0.259395
     15          1           0       -1.616427    0.086501   -1.349204
     16          1           0       -1.311743   -1.204828   -0.188329
     17          1           0       -0.549353    0.632199    1.325211
     18          1           0        0.859125    2.599174   -0.730624
     19          1           0        2.404183    1.713227   -0.717929
     20          1           0        1.637478    2.186009    0.819391
     21          1           0        0.802758   -1.393105    0.386212
     22          1           0        1.772067   -0.281384    1.410169
     23          1           0        4.383778   -1.320112   -0.424053
 ---------------------------------------------------------------------

 SCF Done:  E(RB3LYP) =  -417.896424104     A.U. after    1 cycles

 The electronic state is 1-A.
 Alpha  occ. eigenvalues --  -14.38540 -14.37634 -14.34709 -14.33865 -10.23153
 Alpha  occ. eigenvalues --  -10.20183 -10.19538 -10.18216 -10.17576  -1.03359
 Alpha  occ. eigenvalues --   -0.97769  -0.83472  -0.76839  -0.74274  -0.67180
 Alpha  occ. eigenvalues --   -0.63865  -0.59075  -0.58328  -0.51058  -0.50248
 Alpha  occ. eigenvalues --   -0.47765  -0.45997  -0.45112  -0.42633  -0.40939
 Alpha  occ. eigenvalues --   -0.40493  -0.39447  -0.38424  -0.37740  -0.35417
 Alpha  occ. eigenvalues --   -0.34880  -0.33537  -0.33216  -0.23976  -0.22823
 Alpha  occ. eigenvalues --   -0.22670
 Alpha virt. eigenvalues --   -0.04563   0.08118   0.09739   0.10434   0.11619
 Alpha virt. eigenvalues --    0.12857   0.13584   0.15035   0.15372   0.16940
 Alpha virt. eigenvalues --    0.17383   0.17538   0.18267   0.18949   0.19527

 Mulliken charges:
               1
     1  C   -0.380048
     2  C   -0.183512
     3  C   -0.085968
     4  N   -0.284689
     5  N   -0.057048
     6  C   -0.301565
     7  C   -0.056929
     8  N   -0.112583
     9  N   -0.274578
    10  H    0.114837
    11  H    0.115607
    12  H    0.118745
    13  H    0.090395
    14  H    0.110068
    15  H    0.114042
    16  H    0.075453
    17  H    0.199883
    18  H    0.129199
    19  H    0.124165
    20  H    0.090990
    21  H    0.122718
    22  H    0.084369
    23  H    0.246451
 Sum of Mulliken charges =  -0.00000

 Dipole moment (field-independent basis, Debye):
    X=             -0.4083    Y=             -0.4657    Z=              0.6847  Tot=              0.9233
 Quadrupole moment (field-independent basis, Debye-Ang):
   XX=            -53.0550   YY=            -56.2752   ZZ=            -57.7953
   XY=              0.5356   XZ=             -2.5782   YZ=             -0.0724

  Exact polarizability: 117.503  -2.680  76.583  -0.821   0.564  71.139
 Approx polarizability: 141.054  -5.848 108.249   1.826   0.101 111.814

                      1                      2                      3
                      A                      A                      A
 Frequencies --     53.8953                59.8235                69.3224
 Red. masses --      3.9968                 3.0197                 1.9489
 Frc consts  --      0.0068                 0.0064                 0.0055
 IR Inten    --      0.0399                 0.1709                 0.1719

                      4                      5                      6
                      A                      A                      A
 Frequencies --     85.8574               153.2016               159.8632
 Red. masses --      3.5937                 2.6476                 2.5374
 Frc consts  --      0.0156                 0.0366                 0.0382
 IR Inten    --      0.2803                 0.8734                 1.3681

                      7                      8                      9
                      A                      A                      A
 Frequencies --    235.1255               243.6032               256.9531
 Red. masses --      1.1675                 1.1118                 3.0541
 Frc consts  --      0.0380                 0.0389                 0.1188
 IR Inten    --      0.0314                 0.2670                 0.5617

                     10                     11                     12
                      A                      A                      A
 Frequencies --    301.4705               343.8440               395.7339
 Red. masses --      3.1534                 3.0184                 2.4371
 Frc consts  --      0.1689                 0.2103                 0.2249
 IR Inten    --      2.6640                 1.6869                 5.1870

                     13                     14                     15
                      A                      A                      A
 Frequencies --    488.7449               516.1940               563.0276
 Red. masses --      3.2213                 3.2179                 3.8912
 Frc consts  --      0.4534                 0.5052                 0.7268
 IR Inten    --      2.2600                 6.0179                 3.6394

                     16                     17                     18
                      A                      A                      A
 Frequencies --    759.8781               791.0016               846.8752
 Red. masses --      1.0829                 1.7812                 1.4483
 Frc consts  --      0.3684                 0.6566                 0.6120
 IR Inten    --      1.7662                26.3150                67.7654

                     19                     20                     21
                      A                      A                      A
 Frequencies --    899.1928               906.4848               946.9956
 Red. masses --      1.2523                 1.9011                 2.0349
 Frc consts  --      0.5966                 0.9204                 1.0752
 IR Inten    --      6.4948                 3.8728                11.2649

                     22                     23                     24
                      A                      A                      A
 Frequencies --    995.8394              1026.6244              1057.8857
 Red. masses --      2.2838                 2.3026                 2.3433
 Frc consts  --      1.3344                 1.4298                 1.5451
 IR Inten    --      9.6833                14.6873                 9.9613

                     25                     26                     27
                      A                      A                      A
 Frequencies --   1071.1593              1110.9548              1143.7038
 Red. masses --      1.7125                 2.5565                 1.8531
 Frc consts  --      1.1577                 1.8590                 1.4282
 IR Inten    --      7.5268                25.5752                 8.9719

                     28                     29                     30
                      A                      A                      A
 Frequencies --   1147.6624              1197.3283              1212.6340
 Red. masses --      1.7248                 1.7317                 1.8422
 Frc consts  --      1.3385                 1.4626                 1.5961
 IR Inten    --     14.7001                 6.0637                 7.1624

                     31                     32                     33
                      A                      A                      A
 Frequencies --   1252.8118              1271.5261              1290.2459
 Red. masses --      2.7040                 1.2834                 1.5829
 Frc consts  --      2.5005                 1.2226                 1.5526
 IR Inten    --      6.5095                 2.7865                16.6298

                     34                     35                     36
                      A                      A                      A
 Frequencies --   1311.1420              1330.1117              1379.6720
 Red. masses --      1.1630                 1.2410                 1.3124
 Frc consts  --      1.1779                 1.2936                 1.4719
 IR Inten    --      0.6887                11.5221                17.0966

                     37                     38                     39
                      A                      A                      A
 Frequencies --   1404.0542              1413.8251              1443.7655
 Red. masses --      1.5048                 1.2245                 1.1642
 Frc consts  --      1.7478                 1.4422                 1.4298
 IR Inten    --      3.3764                 1.4620                 1.0736

                     40                     41                     42
                      A                      A                      A
 Frequencies --   1468.2712              1480.5213              1490.6806
 Red. masses --      1.0922                 1.0690                 1.0581
 Frc consts  --      1.3873                 1.3806                 1.3853
 IR Inten    --      0.0396                 6.8496                 0.7233

                     43                     44                     45
                      A                      A                      A
 Frequencies --   1492.1256              1499.8451              1500.2288
 Red. masses --      1.2773                 1.0597                 1.0437
 Frc consts  --      1.6755                 1.4045                 1.3840
 IR Inten    --     26.6719                 1.3934                 6.5832

                     46                     47                     48
                      A                      A                      A
 Frequencies --   1505.2660              1516.5032              1524.6788
 Red. masses --      1.0760                 1.1636                 1.1049
 Frc consts  --      1.4365                 1.5767                 1.5133
 IR Inten    --      2.6255                 4.6822                 8.2949

                     49                     50                     51
                      A                      A                      A
 Frequencies --   1650.6763              2909.1505              2926.6017
 Red. masses --      9.9772                 1.0684                 1.0726
 Frc consts  --     16.0171                 5.3273                 5.4125
 IR Inten    --      4.5817                43.5997                65.7977

                     52                     53                     54
                      A                      A                      A
 Frequencies --   2943.1156              3011.8115              3032.0541
 Red. masses --      1.0591                 1.0663                 1.0358
 Frc consts  --      5.4051                 5.6987                 5.6107
 IR Inten    --     76.5031                23.9316                27.7814

                     55                     56                     57
                      A                      A                      A
 Frequencies --   3057.1164              3059.1139              3070.6616
 Red. masses --      1.0869                 1.0894                 1.0937
 Frc consts  --      5.9851                 6.0067                 6.0762
 IR Inten    --      9.3387                16.4156                18.9579

                     58                     59                     60
                      A                      A                      A
 Frequencies --   3082.5717              3099.4593              3106.0319
 Red. masses --      1.0733                 1.1020                 1.1009
 Frc consts  --      6.0092                 6.2371                 6.2575
 IR Inten    --     25.6192                53.6989                34.1306

                     61                     62                     63
                      A                      A                      A
 Frequencies --   3139.4641              3246.4491              3372.5636
 Red. masses --      1.1020                 1.0739                 1.0732
 Frc consts  --      6.3997                 6.6684                 7.1917
 IR Inten    --     16.5920                28.5246                14.6110

 - Thermochemistry -
 -------------------
 Temperature   298.150 Kelvin.  Pressure   1.00000 Atm.
 Atom     1 has atomic number  6 and mass  12.00000

 Molecular mass:   130.12185 amu.
 Principal axes and moments of inertia in atomic units:
                           1         2         3
     Eigenvalues --   494.521742882.344003212.88341
           X            0.99982   0.01871   0.00172
           Y           -0.01872   0.99982   0.00301
           Z           -0.00167  -0.00304   0.99999
 This molecule is an asymmetric top.
 Rotational symmetry number  1.
 Warning -- assumption of classical behavior for rotation
           may cause significant error
 Rotational temperatures (Kelvin)      0.17515     0.03005     0.02696
 Rotational constants (GHZ):           3.64947     0.62614     0.56172
 Zero-point vibrational energy     534270.2 (Joules/Mol)
                                  127.69363 (Kcal/Mol)
 Warning -- explicit consideration of  15 degrees of freedom as
           vibrations may cause significant error
 Vibrational temperatures:     77.54    86.07    99.74   123.53   220.42
          (Kelvin)            230.01   338.29   350.49   369.70   433.75
                              494.71   569.37   703.19   742.69   810.07
                             1093.30  1138.07  1218.46  1293.74  1304.23
                             1362.52  1432.79  1477.08  1522.06  1541.16
                             1598.42  1645.53  1651.23  1722.69  1744.71
                             1802.52  1829.44  1856.38  1886.44  1913.73
                             1985.04  2020.12  2034.18  2077.26  2112.51
                             2130.14  2144.76  2146.84  2157.94  2158.49
                             2165.74  2181.91  2193.67  2374.96  4185.62
                             4210.73  4234.49  4333.32  4362.45  4398.51
                             4401.38  4418.00  4435.13  4459.43  4468.89
                             4516.99  4670.92  4852.37

 Zero-point correction=                           0.203493 (Hartree/Particle)
 Thermal correction to Energy=                    0.214745
 Thermal correction to Enthalpy=                  0.215689
 Thermal correction to Gibbs Free Energy=         0.165674
 Sum of electronic and zero-point Energies=           -417.692931
 Sum of electronic and thermal Energies=              -417.681679
 Sum of electronic and thermal Enthalpies=            -417.680735
 Sum of electronic and thermal Free Energies=         -417.730750

                     E (Thermal)             CV                S
                      KCal/Mol        Cal/Mol-Kelvin    Cal/Mol-Kelvin
 Total                  134.754             39.089            105.266
 Electronic               0.000              0.000              0.000
 Translational            0.889              2.981             40.503
 Rotational               0.889              2.981             29.905
 Vibrational            132.977             33.127             34.858
 Vibration     1          0.596              1.976              4.669
 Vibration     2          0.597              1.973              4.463
 Vibration     3          0.598              1.969              4.173
 Vibration     4          0.601              1.959              3.752
 Vibration     5          0.619              1.899              2.632
 Vibration     6          0.622              1.892              2.551
 Vibration     7          0.655              1.787              1.839
 Vibration     8          0.659              1.773              1.776
 Vibration     9          0.667              1.751              1.682
 Vibration    10          0.693              1.671              1.409
 Vibration    11          0.723              1.588              1.194
 Vibration    12          0.762              1.479              0.978
 Vibration    13          0.845              1.275              0.687
 Vibration    14          0.871              1.214              0.619
 Vibration    15          0.919              1.111              0.518

 Optimization completed.
    -- Stationary point found.
 Normal termination of Gaussian 16 at Mon May 31 21:11:59 2021.
