 Gaussian 16, Revision A.03,
 Gaussian 16:  ES64L-G16RevA.03 25-Dec-2016

 -----------------------------
 # opt freq b3lyp/6-31g(2df,p)
 -----------------------------

 -------------------
 Title Card Required
 -------------------
 Symbolic Z-matrix:
 Charge =  0 Multiplicity = 1

 SCF Done:  E(RB3LYP) =  -403.052169202     A.U. after   12 cycles
 SCF Done:  E(RB3LYP) =  -403.063594655     A.U. after   11 cycles
 SCF Done:  E(RB3LYP) =  -403.067532645     A.U. after   11 cycles
 SCF Done:  E(RB3LYP) =  -403.070235937     A.U. after   11 cycles
 SCF Done:  E(RB3LYP) =  -403.071320758     A.U. after   11 cycles
 SCF Done:  E(RB3LYP) =  -403.073141048     A.U. after   11 cycles
 SCF Done:  E(RB3LYP) =  -403.076816581     A.U. after   13 cycles
 SCF Done:  E(RB3LYP) =  -403.080733090     A.U. after   13 cycles
 SCF Done:  E(RB3LYP) =  -403.074815195     A.U. after   11 cycles
 SCF Done:  E(RB3LYP) =  -403.082692900     A.U. after   11 cycles
 SCF Done:  E(RB3LYP) =  -403.083160632     A.U. after   10 cycles
 SCF Done:  E(RB3LYP) =  -403.083423151     A.U. after   10 cycles
 SCF Done:  E(RB3LYP) =  -403.083511655     A.U. after   10 cycles
 SCF Done:  E(RB3LYP) =  -403.083532007     A.U. after    8 cycles
 SCF Done:  E(RB3LYP) =  -403.083539827     A.U. after    8 cycles
 SCF Done:  E(RB3LYP) =  -403.083541419     A.U. after    7 cycles
 SCF Done:  E(RB3LYP) =  -403.083542020     A.U. after    7 cycles
 SCF Done:  E(RB3LYP) =  -403.083542243     A.U. after    7 cycles
 SCF Done:  E(RB3LYP) =  -403.083542360     A.U. after    7 cycles
 Optimization completed.
    -- Stationary point found.
 Normal termination of Gaussian 16 at Mon May 31 17:55:37 2021.

 ----------------------------------------------------------------------
 #N Geom=AllCheck Guess=TCheck SCRF=Check GenChk RB3LYP/6-31G(2df,p) Fr
 eq
 ----------------------------------------------------------------------

 Structure from the checkpoint file:  "CCCNpCCpNNC.chk"
 -------------------
 Title Card Required
 -------------------
 Charge =  0 Multiplicity = 1

                         Standard orientation:
 ---------------------------------------------------------------------
 Center     Atomic      Atomic             Coordinates (Angstroms)
 Number     Number       Type             X           Y           Z
 ---------------------------------------------------------------------
      1          6           0       -2.943524   -1.900766   -0.045752
      2          6           0       -2.111296   -0.643194   -0.314583
      3          6           0       -0.755389   -0.693696    0.392441
      4          7           0        0.124842    0.434579    0.080391
      5          6           0       -0.325823    1.742717    0.575605
      6          6           0       -0.914560    2.626712   -0.526612
      7          7           0        1.472051    0.197905    0.480208
      8          7           0        2.051863   -0.730457   -0.500628
      9          6           0        3.456281   -0.933826   -0.154787
     10          1           0       -3.910672   -1.852038   -0.555037
     11          1           0       -3.138215   -2.027987    1.025031
     12          1           0       -2.426220   -2.800459   -0.396580
     13          1           0       -2.674914    0.238841    0.011347
     14          1           0       -1.939733   -0.525836   -1.390860
     15          1           0       -0.218956   -1.592134    0.071239
     16          1           0       -0.917911   -0.773526    1.487492
     17          1           0        0.547946    2.237012    1.007751
     18          1           0       -1.057321    1.616163    1.390442
     19          1           0       -0.172592    2.797212   -1.312236
     20          1           0       -1.214751    3.598071   -0.118166
     21          1           0       -1.792524    2.168651   -0.989921
     22          1           0        1.462048   -0.359117    1.345497
     23          1           0        2.008439   -0.191383   -1.363081
     24          1           0        3.526356   -1.541204    0.755703
     25          1           0        4.010718    0.001690    0.016221
     26          1           0        3.932881   -1.495823   -0.962509
 ---------------------------------------------------------------------

 SCF Done:  E(RB3LYP) =  -403.083542360     A.U. after    1 cycles

 The electronic state is 1-A.
 Alpha  occ. eigenvalues --  -14.35701 -14.33449 -14.33130 -10.19746 -10.19701
 Alpha  occ. eigenvalues --  -10.19498 -10.17664 -10.17199 -10.16609  -0.99267
 Alpha  occ. eigenvalues --   -0.88439  -0.78030  -0.76040  -0.71200  -0.65947
 Alpha  occ. eigenvalues --   -0.64058  -0.59777  -0.57218  -0.50604  -0.47286
 Alpha  occ. eigenvalues --   -0.46209  -0.45721  -0.43670  -0.41734  -0.40827
 Alpha  occ. eigenvalues --   -0.40127  -0.38664  -0.37384  -0.36713  -0.36241
 Alpha  occ. eigenvalues --   -0.35526  -0.33380  -0.33126  -0.32103  -0.30085
 Alpha  occ. eigenvalues --   -0.21677  -0.19186
 Alpha virt. eigenvalues --    0.09004   0.09422   0.10677   0.11287   0.13248
 Alpha virt. eigenvalues --    0.13666   0.14536   0.15244   0.15876   0.16627
 Alpha virt. eigenvalues --    0.17044   0.17676   0.18024   0.18807   0.19007

 Mulliken charges:
               1
     1  C   -0.381229
     2  C   -0.182428
     3  C   -0.116106
     4  N   -0.074254
     5  C   -0.118514
     6  C   -0.362583
     7  N   -0.265251
     8  N   -0.246491
     9  C   -0.300536
    10  H    0.112811
    11  H    0.114081
    12  H    0.117405
    13  H    0.099306
    14  H    0.104953
    15  H    0.119589
    16  H    0.064764
    17  H    0.110302
    18  H    0.082677
    19  H    0.117100
    20  H    0.104583
    21  H    0.117228
    22  H    0.208795
    23  H    0.227451
    24  H    0.117400
    25  H    0.107161
    26  H    0.121787
 Sum of Mulliken charges =  -0.00000

 Dipole moment (field-independent basis, Debye):
    X=             -0.0034    Y=             -0.1568    Z=              0.3722  Tot=              0.4038
 Quadrupole moment (field-independent basis, Debye-Ang):
   XX=            -55.8869   YY=            -59.7927   ZZ=            -56.7629
   XY=             -1.3436   XZ=             -1.0496   YZ=             -0.6658

  Exact polarizability: 108.766  -3.593  92.989  -1.219  -0.675  79.489
 Approx polarizability: 132.095  -5.293 121.687  -2.569  -0.184 122.235

                      1                      2                      3
                      A                      A                      A
 Frequencies --     36.5488                60.3366                78.1347
 Red. masses --      2.4801                 2.3045                 2.6642
 Frc consts  --      0.0020                 0.0049                 0.0096
 IR Inten    --      1.5064                 2.4743                 0.1135

                      4                      5                      6
                      A                      A                      A
 Frequencies --    103.3264               121.9575               167.4982
 Red. masses --      1.8035                 2.0506                 2.1407
 Frc consts  --      0.0113                 0.0180                 0.0354
 IR Inten    --      0.0109                 0.0961                 0.9282

                      7                      8                      9
                      A                      A                      A
 Frequencies --    201.6784               227.6038               245.5214
 Red. masses --      2.1130                 1.2310                 1.1884
 Frc consts  --      0.0506                 0.0376                 0.0422
 IR Inten    --      2.9356                 0.4789                 0.3577

                     10                     11                     12
                      A                      A                      A
 Frequencies --    259.5183               314.4747               339.7292
 Red. masses --      1.2952                 2.8426                 2.2910
 Frc consts  --      0.0514                 0.1656                 0.1558
 IR Inten    --      0.4466                 1.4402                 0.5768

                     13                     14                     15
                      A                      A                      A
 Frequencies --    360.0682               445.4749               473.2030
 Red. masses --      3.1393                 3.6300                 2.6112
 Frc consts  --      0.2398                 0.4244                 0.3445
 IR Inten    --      3.4326                 4.3441                 3.0592

                     16                     17                     18
                      A                      A                      A
 Frequencies --    568.2352               766.3452               785.6162
 Red. masses --      3.2650                 1.0947                 1.1886
 Frc consts  --      0.6211                 0.3788                 0.4322
 IR Inten    --      1.2306                 2.2379                 3.3316

                     19                     20                     21
                      A                      A                      A
 Frequencies --    812.2560               889.9760               898.3037
 Red. masses --      2.9236                 2.2142                 1.3706
 Frc consts  --      1.1365                 1.0333                 0.6517
 IR Inten    --     11.5158                12.5115                 2.9697

                     22                     23                     24
                      A                      A                      A
 Frequencies --    923.4101               938.7804               993.8731
 Red. masses --      1.7521                 1.2501                 2.1447
 Frc consts  --      0.8802                 0.6491                 1.2482
 IR Inten    --      3.9771                57.5504                 0.3228

                     25                     26                     27
                      A                      A                      A
 Frequencies --   1023.2852              1048.4185              1080.4567
 Red. masses --      2.6090                 2.6753                 2.1678
 Frc consts  --      1.6096                 1.7326                 1.4911
 IR Inten    --     23.9043                10.1341                44.8176

                     28                     29                     30
                      A                      A                      A
 Frequencies --   1087.2002              1106.7369              1116.0945
 Red. masses --      2.6514                 1.9126                 1.9546
 Frc consts  --      1.8465                 1.3803                 1.4346
 IR Inten    --     12.4794                13.5475                 3.6094

                     31                     32                     33
                      A                      A                      A
 Frequencies --   1144.6282              1167.2851              1220.8375
 Red. masses --      1.6587                 1.5524                 2.2853
 Frc consts  --      1.2804                 1.2463                 2.0069
 IR Inten    --      5.3306                 3.1727                 7.3604

                     34                     35                     36
                      A                      A                      A
 Frequencies --   1221.2845              1276.4522              1286.2227
 Red. masses --      2.7977                 1.4715                 1.3191
 Frc consts  --      2.4586                 1.4126                 1.2858
 IR Inten    --      7.3246                 5.4070                 6.4482

                     37                     38                     39
                      A                      A                      A
 Frequencies --   1323.3313              1334.9830              1354.2869
 Red. masses --      1.1644                 1.2221                 1.3011
 Frc consts  --      1.2014                 1.2833                 1.4060
 IR Inten    --      6.5347                 5.7879                 0.2989

                     40                     41                     42
                      A                      A                      A
 Frequencies --   1384.6560              1405.3152              1408.0847
 Red. masses --      1.2823                 1.2866                 1.2621
 Frc consts  --      1.4485                 1.4971                 1.4744
 IR Inten    --     12.7979                 2.6525                 7.9131

                     43                     44                     45
                      A                      A                      A
 Frequencies --   1412.4630              1435.2765              1446.8738
 Red. masses --      1.2200                 1.2977                 1.2128
 Frc consts  --      1.4341                 1.5750                 1.4959
 IR Inten    --      2.8365                 4.8990                 7.1145

                     46                     47                     48
                      A                      A                      A
 Frequencies --   1479.0827              1481.8589              1487.1953
 Red. masses --      1.0365                 1.0681                 1.0497
 Frc consts  --      1.3360                 1.3819                 1.3679
 IR Inten    --      5.6378                 1.6062                 0.9505

                     49                     50                     51
                      A                      A                      A
 Frequencies --   1492.1662              1497.1215              1499.8950
 Red. masses --      1.0643                 1.0567                 1.0406
 Frc consts  --      1.3963                 1.3955                 1.3793
 IR Inten    --      1.4684                 2.4732                 5.9391

                     52                     53                     54
                      A                      A                      A
 Frequencies --   1504.9230              1512.7798              1516.5962
 Red. masses --      1.0635                 1.0873                 1.0485
 Frc consts  --      1.4191                 1.4660                 1.4209
 IR Inten    --      1.7877                 1.2985                12.8002

                     55                     56                     57
                      A                      A                      A
 Frequencies --   1543.2489              2887.7257              2969.6692
 Red. masses --      1.1339                 1.0713                 1.0713
 Frc consts  --      1.5911                 5.2635                 5.5664
 IR Inten    --      5.2512                71.6151                56.0507

                     58                     59                     60
                      A                      A                      A
 Frequencies --   2984.2000              3029.7660              3031.5673
 Red. masses --      1.0466                 1.0422                 1.0518
 Frc consts  --      5.4915                 5.6367                 5.6951
 IR Inten    --     75.6759                12.4928                33.0025

                     61                     62                     63
                      A                      A                      A
 Frequencies --   3036.7950              3056.2701              3061.6497
 Red. masses --      1.0372                 1.0905                 1.0953
 Frc consts  --      5.6354                 6.0013                 6.0492
 IR Inten    --     37.4389                36.0206                 5.0319

                     64                     65                     66
                      A                      A                      A
 Frequencies --   3078.4139              3086.2363              3099.2827
 Red. masses --      1.0929                 1.0904                 1.1022
 Frc consts  --      6.1024                 6.1194                 6.2380
 IR Inten    --      9.2326                 3.9396                53.6033

                     67                     68                     69
                      A                      A                      A
 Frequencies --   3104.4393              3105.8344              3110.8209
 Red. masses --      1.1009                 1.0996                 1.0982
 Frc consts  --      6.2511                 6.2495                 6.2617
 IR Inten    --     34.7346                32.2123                21.8772

                     70                     71                     72
                      A                      A                      A
 Frequencies --   3121.5860              3292.1083              3481.4396
 Red. masses --      1.1013                 1.0735                 1.0747
 Frc consts  --      6.3228                 6.8550                 7.6744
 IR Inten    --     36.6798                23.9057                 0.3694

 - Thermochemistry -
 -------------------
 Temperature   298.150 Kelvin.  Pressure   1.00000 Atm.
 Atom     1 has atomic number  6 and mass  12.00000

 Molecular mass:   131.14225 amu.
 Principal axes and moments of inertia in atomic units:
                           1         2         3
     Eigenvalues --  1020.372431936.829142713.74309
           X            1.00000   0.00163   0.00125
           Y           -0.00162   0.99995  -0.00985
           Z           -0.00127   0.00985   0.99995
 This molecule is an asymmetric top.
 Rotational symmetry number  1.
 Warning -- assumption of classical behavior for rotation
           may cause significant error
 Rotational temperatures (Kelvin)      0.08488     0.04472     0.03192
 Rotational constants (GHZ):           1.76871     0.93180     0.66504
 Zero-point vibrational energy     627134.6 (Joules/Mol)
                                  149.88876 (Kcal/Mol)
 Warning -- explicit consideration of  16 degrees of freedom as
           vibrations may cause significant error
 Vibrational temperatures:     52.59    86.81   112.42   148.66   175.47
          (Kelvin)            240.99   290.17   327.47   353.25   373.39
                              452.46   488.79   518.06   640.94   680.83
                              817.56  1102.60  1130.33  1168.66  1280.48
                             1292.46  1328.58  1350.70  1429.96  1472.28
                             1508.44  1554.54  1564.24  1592.35  1605.81
                             1646.86  1679.46  1756.51  1757.16  1836.53
                             1850.59  1903.98  1920.74  1948.52  1992.21
                             2021.94  2025.92  2032.22  2065.04  2081.73
                             2128.07  2132.06  2139.74  2146.89  2154.02
                             2158.01  2165.25  2176.55  2182.04  2220.39
                             4154.79  4272.69  4293.60  4359.16  4361.75
                             4369.27  4397.29  4405.03  4429.15  4440.41
                             4459.18  4466.60  4468.60  4475.78  4491.27
                             4736.61  5009.02

 Zero-point correction=                           0.238863 (Hartree/Particle)
 Thermal correction to Energy=                    0.250914
 Thermal correction to Enthalpy=                  0.251858
 Thermal correction to Gibbs Free Energy=         0.200204
 Sum of electronic and zero-point Energies=           -402.844679
 Sum of electronic and thermal Energies=              -402.832628
 Sum of electronic and thermal Enthalpies=            -402.831684
 Sum of electronic and thermal Free Energies=         -402.883338

                     E (Thermal)             CV                S
                      KCal/Mol        Cal/Mol-Kelvin    Cal/Mol-Kelvin
 Total                  157.451             42.425            108.715
 Electronic               0.000              0.000              0.000
 Translational            0.889              2.981             40.526
 Rotational               0.889              2.981             30.062
 Vibrational            155.674             36.464             38.126
 Vibration     1          0.594              1.982              5.438
 Vibration     2          0.597              1.973              4.446
 Vibration     3          0.599              1.964              3.937
 Vibration     4          0.605              1.947              3.391
 Vibration     5          0.609              1.931              3.069
 Vibration     6          0.624              1.882              2.463
 Vibration     7          0.639              1.838              2.118
 Vibration     8          0.651              1.799              1.898
 Vibration     9          0.660              1.770              1.763
 Vibration    10          0.668              1.747              1.665
 Vibration    11          0.702              1.646              1.339
 Vibration    12          0.720              1.596              1.213
 Vibration    13          0.735              1.555              1.122
 Vibration    14          0.805              1.371              0.810
 Vibration    15          0.830              1.310              0.729
 Vibration    16          0.924              1.100              0.508

                           ! Non-Optimized Parameters !
 Normal termination of Gaussian 16 at Mon May 31 18:30:38 2021.
