 Gaussian 16, Revision A.03,
 Gaussian 16:  ES64L-G16RevA.03 25-Dec-2016

 -----------------------------
 # opt freq b3lyp/6-31g(2df,p)
 -----------------------------

 -------------------
 Title Card Required
 -------------------
 Symbolic Z-matrix:
 Charge =  0 Multiplicity = 1

 SCF Done:  E(RB3LYP) =  -387.101059728     A.U. after   12 cycles
 SCF Done:  E(RB3LYP) =  -387.105852360     A.U. after   10 cycles
 SCF Done:  E(RB3LYP) =  -387.106463739     A.U. after   10 cycles
 SCF Done:  E(RB3LYP) =  -387.106652088     A.U. after   10 cycles
 SCF Done:  E(RB3LYP) =  -387.106698800     A.U. after    9 cycles
 SCF Done:  E(RB3LYP) =  -387.106710647     A.U. after    8 cycles
 SCF Done:  E(RB3LYP) =  -387.106713910     A.U. after    7 cycles
 SCF Done:  E(RB3LYP) =  -387.106714505     A.U. after    7 cycles
 SCF Done:  E(RB3LYP) =  -387.106714884     A.U. after    7 cycles
 SCF Done:  E(RB3LYP) =  -387.106714962     A.U. after    7 cycles
 SCF Done:  E(RB3LYP) =  -387.106714977     A.U. after    6 cycles
 Optimization completed.
    -- Stationary point found.
 Normal termination of Gaussian 16 at Mon May 31 19:16:05 2021.

 ----------------------------------------------------------------------
 #N Geom=AllCheck Guess=TCheck SCRF=Check GenChk RB3LYP/6-31G(2df,p) Fr
 eq
 ----------------------------------------------------------------------

 Structure from the checkpoint file:  "CCCNCpCpCNC.chk"
 -------------------
 Title Card Required
 -------------------
 Charge =  0 Multiplicity = 1

                         Standard orientation:
 ---------------------------------------------------------------------
 Center     Atomic      Atomic             Coordinates (Angstroms)
 Number     Number       Type             X           Y           Z
 ---------------------------------------------------------------------
      1          6           0       -4.438674   -0.238868   -0.250080
      2          6           0       -3.081113   -0.663446    0.314727
      3          6           0       -1.921119    0.164353   -0.239312
      4          7           0       -0.653109   -0.249352    0.354137
      5          6           0        0.542277    0.378069   -0.218588
      6          6           0        0.651326    1.837350    0.238328
      7          6           0        1.761397   -0.446381    0.219348
      8          7           0        3.004943    0.038363   -0.364884
      9          6           0        4.145052   -0.818896   -0.068206
     10          1           0       -5.247839   -0.851525    0.158677
     11          1           0       -4.465339   -0.337575   -1.340927
     12          1           0       -4.659055    0.806683   -0.007808
     13          1           0       -2.906269   -1.724584    0.087459
     14          1           0       -3.080015   -0.579092    1.407568
     15          1           0       -2.095739    1.220958   -0.002088
     16          1           0       -1.914342    0.094077   -1.345303
     17          1           0       -0.570013   -1.256493    0.245917
     18          1           0        0.519659    0.366778   -1.324406
     19          1           0        0.745221    1.891004    1.328327
     20          1           0       -0.230501    2.414491   -0.052383
     21          1           0        1.514430    2.328133   -0.221824
     22          1           0        1.623127   -1.481014   -0.126043
     23          1           0        1.781419   -0.488000    1.325348
     24          1           0        3.197727    0.970615   -0.015315
     25          1           0        4.007349   -1.792196   -0.553349
     26          1           0        4.305612   -1.006994    1.009178
     27          1           0        5.056854   -0.371430   -0.475094
 ---------------------------------------------------------------------

 SCF Done:  E(RB3LYP) =  -387.106714977     A.U. after    1 cycles

 The electronic state is 1-A.
 Alpha  occ. eigenvalues --  -14.30866 -14.30326 -10.20213 -10.19738 -10.19640
 Alpha  occ. eigenvalues --  -10.19622 -10.17684 -10.17202 -10.16780  -0.90630
 Alpha  occ. eigenvalues --   -0.88634  -0.77792  -0.73735  -0.68697  -0.66121
 Alpha  occ. eigenvalues --   -0.62515  -0.58241  -0.56344  -0.49009  -0.48450
 Alpha  occ. eigenvalues --   -0.45868  -0.44903  -0.42849  -0.42059  -0.40560
 Alpha  occ. eigenvalues --   -0.39774  -0.38123  -0.37925  -0.37314  -0.36217
 Alpha  occ. eigenvalues --   -0.34501  -0.34115  -0.32623  -0.32491  -0.31204
 Alpha  occ. eigenvalues --   -0.22238  -0.21168
 Alpha virt. eigenvalues --    0.08239   0.09300   0.10130   0.11226   0.12889
 Alpha virt. eigenvalues --    0.13544   0.14705   0.15389   0.16140   0.16851
 Alpha virt. eigenvalues --    0.17078   0.17462   0.17800   0.19015   0.19167

 Mulliken charges:
               1
     1  C   -0.379032
     2  C   -0.181169
     3  C   -0.105662
     4  N   -0.308679
     5  C    0.062941
     6  C   -0.386667
     7  C   -0.146924
     8  N   -0.286929
     9  C   -0.307795
    10  H    0.112899
    11  H    0.114740
    12  H    0.115429
    13  H    0.088634
    14  H    0.107218
    15  H    0.101283
    16  H    0.070945
    17  H    0.206665
    18  H    0.060619
    19  H    0.116440
    20  H    0.116364
    21  H    0.112166
    22  H    0.088421
    23  H    0.083683
    24  H    0.217304
    25  H    0.119644
    26  H    0.092026
    27  H    0.115437
 Sum of Mulliken charges =  -0.00000

 Dipole moment (field-independent basis, Debye):
    X=              0.1033    Y=             -0.2062    Z=              0.1232  Tot=              0.2615
 Quadrupole moment (field-independent basis, Debye-Ang):
   XX=            -56.5339   YY=            -56.8333   ZZ=            -62.5146
   XY=              1.0000   XZ=              2.5943   YZ=              0.7376

  Exact polarizability: 119.737  -0.721  87.519   0.488  -0.760  78.641
 Approx polarizability: 131.794   0.097 127.190  -0.384  -1.453 121.322

                      1                      2                      3
                      A                      A                      A
 Frequencies --     44.6223                57.0013                81.9985
 Red. masses --      1.9301                 2.2594                 2.0974
 Frc consts  --      0.0023                 0.0043                 0.0083
 IR Inten    --      0.8822                 0.2549                 2.2262

                      4                      5                      6
                      A                      A                      A
 Frequencies --     93.2960               111.3484               140.2782
 Red. masses --      2.8178                 2.4275                 1.9688
 Frc consts  --      0.0145                 0.0177                 0.0228
 IR Inten    --      1.1001                 1.1753                 1.0490

                      7                      8                      9
                      A                      A                      A
 Frequencies --    197.4175               235.8856               243.4375
 Red. masses --      2.6876                 1.0929                 1.1865
 Frc consts  --      0.0617                 0.0358                 0.0414
 IR Inten    --      0.1311                 0.0453                 0.0476

                     10                     11                     12
                      A                      A                      A
 Frequencies --    259.7903               296.6409               327.3785
 Red. masses --      1.2018                 4.0568                 2.4395
 Frc consts  --      0.0478                 0.2103                 0.1540
 IR Inten    --      1.4971                 0.2889                 0.4830

                     13                     14                     15
                      A                      A                      A
 Frequencies --    348.8345               428.4232               509.1052
 Red. masses --      2.8325                 2.4066                 2.5167
 Frc consts  --      0.2031                 0.2603                 0.3843
 IR Inten    --      1.1632                 6.9747                 3.0199

                     16                     17                     18
                      A                      A                      A
 Frequencies --    534.9436               760.4550               774.3299
 Red. masses --      2.9351                 1.0784                 1.3426
 Frc consts  --      0.4949                 0.3674                 0.4743
 IR Inten    --      3.0587                 5.0551                78.1097

                     19                     20                     21
                      A                      A                      A
 Frequencies --    785.1772               853.6948               898.6399
 Red. masses --      1.2524                 2.5005                 1.2465
 Frc consts  --      0.4549                 1.0737                 0.5931
 IR Inten    --     55.6925                 3.2045                 2.7408

                     22                     23                     24
                      A                      A                      A
 Frequencies --    914.3607               920.1208               966.6487
 Red. masses --      1.6166                 1.2991                 1.8040
 Frc consts  --      0.7963                 0.6480                 0.9932
 IR Inten    --      0.5849                 5.5094                 3.0532

                     25                     26                     27
                      A                      A                      A
 Frequencies --    991.6711              1045.7479              1082.8600
 Red. masses --      2.0992                 2.7084                 1.9104
 Frc consts  --      1.2163                 1.7451                 1.3198
 IR Inten    --      3.0081                 1.2628                 5.3068

                     28                     29                     30
                      A                      A                      A
 Frequencies --   1093.7696              1105.9740              1137.1925
 Red. masses --      1.8461                 1.6643                 2.1538
 Frc consts  --      1.3013                 1.1994                 1.6411
 IR Inten    --      3.2913                 5.8640                 6.2267

                     31                     32                     33
                      A                      A                      A
 Frequencies --   1151.0290              1169.6133              1183.8213
 Red. masses --      1.7929                 3.1364                 2.0677
 Frc consts  --      1.3995                 2.5279                 1.7073
 IR Inten    --      2.1370                67.7239                14.9420

                     34                     35                     36
                      A                      A                      A
 Frequencies --   1200.4257              1221.9457              1265.9263
 Red. masses --      2.0578                 1.8299                 1.2615
 Frc consts  --      1.7471                 1.6099                 1.1911
 IR Inten    --     28.4270                 2.1839                 8.0462

                     37                     38                     39
                      A                      A                      A
 Frequencies --   1283.0119              1314.8687              1319.7580
 Red. masses --      1.3505                 1.2327                 1.1134
 Frc consts  --      1.3098                 1.2557                 1.1426
 IR Inten    --     30.8590                 1.4530                11.6986

                     40                     41                     42
                      A                      A                      A
 Frequencies --   1340.3519              1381.8941              1386.4691
 Red. masses --      1.3106                 1.3124                 1.3751
 Frc consts  --      1.3872                 1.4766                 1.5574
 IR Inten    --      1.5396                 3.1422                13.8593

                     43                     44                     45
                      A                      A                      A
 Frequencies --   1410.0951              1412.4030              1415.8407
 Red. masses --      1.3103                 1.3462                 1.3850
 Frc consts  --      1.5351                 1.5822                 1.6358
 IR Inten    --      7.8494                 5.8581                 0.6405

                     46                     47                     48
                      A                      A                      A
 Frequencies --   1459.1019              1481.6910              1487.4057
 Red. masses --      1.1694                 1.1854                 1.0648
 Frc consts  --      1.4668                 1.5333                 1.3880
 IR Inten    --      6.7564                 4.1209                12.0152

                     49                     50                     51
                      A                      A                      A
 Frequencies --   1490.1083              1491.5734              1499.8086
 Red. masses --      1.0664                 1.0696                 1.0434
 Frc consts  --      1.3951                 1.4020                 1.3829
 IR Inten    --      2.9887                 2.3790                 4.6165

                     52                     53                     54
                      A                      A                      A
 Frequencies --   1505.2299              1508.9068              1511.0770
 Red. masses --      1.0704                 1.0676                 1.1367
 Frc consts  --      1.4289                 1.4322                 1.5292
 IR Inten    --      2.7468                 6.9811                 1.2932

                     55                     56                     57
                      A                      A                      A
 Frequencies --   1514.1776              1522.1297              1525.9758
 Red. masses --      1.1539                 1.0750                 1.0827
 Frc consts  --      1.5588                 1.4674                 1.4854
 IR Inten    --     23.7379                 3.3473                20.0567

                     58                     59                     60
                      A                      A                      A
 Frequencies --   2902.7259              2915.0426              2928.2864
 Red. masses --      1.0735                 1.0740                 1.0756
 Frc consts  --      5.3294                 5.3773                 5.4341
 IR Inten    --     64.4935                 2.0189                97.6460

                     61                     62                     63
                      A                      A                      A
 Frequencies --   2938.7783              3008.8311              3013.8135
 Red. masses --      1.0605                 1.0669                 1.0885
 Frc consts  --      5.3962                 5.6910                 5.8252
 IR Inten    --    124.0662                18.5083                38.0074

                     64                     65                     66
                      A                      A                      A
 Frequencies --   3030.1493              3035.0878              3041.3764
 Red. masses --      1.0374                 1.0455                 1.0698
 Frc consts  --      5.6120                 5.6745                 5.8302
 IR Inten    --     23.8776                 8.6612                42.5886

                     67                     68                     69
                      A                      A                      A
 Frequencies --   3051.3502              3061.9783              3096.9354
 Red. masses --      1.0736                 1.0967                 1.1020
 Frc consts  --      5.8896                 6.0580                 6.2272
 IR Inten    --     41.3731                18.0656                52.5127

                     70                     71                     72
                      A                      A                      A
 Frequencies --   3099.6838              3103.7688              3107.7128
 Red. masses --      1.1008                 1.1007                 1.1011
 Frc consts  --      6.2316                 6.2475                 6.2658
 IR Inten    --     32.7018                35.9990                32.5026

                     73                     74                     75
                      A                      A                      A
 Frequencies --   3112.0647              3492.2461              3526.9419
 Red. masses --      1.0995                 1.0731                 1.0732
 Frc consts  --      6.2742                 7.7109                 7.8655
 IR Inten    --     30.4173                 1.2517                 0.1846

 - Thermochemistry -
 -------------------
 Temperature   298.150 Kelvin.  Pressure   1.00000 Atm.
 Atom     1 has atomic number  6 and mass  12.00000

 Molecular mass:   130.14700 amu.
 Principal axes and moments of inertia in atomic units:
                           1         2         3
     Eigenvalues --   397.960553485.665273735.17974
           X            0.99998  -0.00230   0.00516
           Y            0.00231   1.00000  -0.00060
           Z           -0.00515   0.00062   0.99999
 This molecule is an asymmetric top.
 Rotational symmetry number  1.
 Rotational temperatures (Kelvin)      0.21764     0.02485     0.02319
 Rotational constants (GHZ):           4.53498     0.51776     0.48317
 Zero-point vibrational energy     658917.8 (Joules/Mol)
                                  157.48514 (Kcal/Mol)
 Warning -- explicit consideration of  16 degrees of freedom as
           vibrations may cause significant error
 Vibrational temperatures:     64.20    82.01   117.98   134.23   160.21
          (Kelvin)            201.83   284.04   339.39   350.25   373.78
                              426.80   471.02   501.89   616.41   732.49
                              769.66  1094.13  1114.09  1129.69  1228.28
                             1292.94  1315.56  1323.85  1390.79  1426.79
                             1504.60  1557.99  1573.69  1591.25  1636.17
                             1656.07  1682.81  1703.25  1727.14  1758.11
                             1821.39  1845.97  1891.80  1898.84  1928.47
                             1988.24  1994.82  2028.81  2032.13  2037.08
                             2099.32  2131.82  2140.05  2143.93  2146.04
                             2157.89  2165.69  2170.98  2174.10  2178.56
                             2190.01  2195.54  4176.38  4194.10  4213.15
                             4228.25  4329.04  4336.21  4359.71  4366.81
                             4375.86  4390.21  4405.50  4455.80  4459.75
                             4465.63  4471.31  4477.57  5024.56  5074.48

 Zero-point correction=                           0.250969 (Hartree/Particle)
 Thermal correction to Energy=                    0.263201
 Thermal correction to Enthalpy=                  0.264145
 Thermal correction to Gibbs Free Energy=         0.212179
 Sum of electronic and zero-point Energies=           -386.855746
 Sum of electronic and thermal Energies=              -386.843514
 Sum of electronic and thermal Enthalpies=            -386.842570
 Sum of electronic and thermal Free Energies=         -386.894536

                     E (Thermal)             CV                S
                      KCal/Mol        Cal/Mol-Kelvin    Cal/Mol-Kelvin
 Total                  165.161             43.108            109.371
 Electronic               0.000              0.000              0.000
 Translational            0.889              2.981             40.503
 Rotational               0.889              2.981             30.028
 Vibrational            163.384             37.146             38.839
 Vibration     1          0.595              1.980              5.043
 Vibration     2          0.596              1.975              4.558
 Vibration     3          0.600              1.961              3.842
 Vibration     4          0.602              1.954              3.590
 Vibration     5          0.607              1.940              3.245
 Vibration     6          0.615              1.913              2.800
 Vibration     7          0.637              1.843              2.157
 Vibration     8          0.655              1.786              1.834
 Vibration     9          0.659              1.774              1.778
 Vibration    10          0.668              1.746              1.663
 Vibration    11          0.690              1.680              1.436
 Vibration    12          0.711              1.621              1.273
 Vibration    13          0.726              1.578              1.171
 Vibration    14          0.790              1.408              0.864
 Vibration    15          0.864              1.230              0.636
 Vibration    16          0.890              1.173              0.576

 Optimization completed.
    -- Stationary point found.
 Normal termination of Gaussian 16 at Mon May 31 19:52:11 2021.
