 Gaussian 16, Revision A.03,
 Gaussian 16:  ES64L-G16RevA.03 25-Dec-2016

 -----------------------------
 # opt freq b3lyp/6-31g(2df,p)
 -----------------------------

 -------------------
 Title Card Required
 -------------------
 Symbolic Z-matrix:
 Charge =  0 Multiplicity = 1

 SCF Done:  E(RB3LYP) =  -399.468350837     A.U. after   15 cycles
 SCF Done:  E(RB3LYP) =  -399.478020043     A.U. after   14 cycles
 SCF Done:  E(RB3LYP) =  -399.478887175     A.U. after   11 cycles
 SCF Done:  E(RB3LYP) =  -399.479088204     A.U. after   11 cycles
 SCF Done:  E(RB3LYP) =  -399.479099451     A.U. after    9 cycles
 SCF Done:  E(RB3LYP) =  -399.479103094     A.U. after    9 cycles
 SCF Done:  E(RB3LYP) =  -399.479103196     A.U. after    8 cycles
 SCF Done:  E(RB3LYP) =  -399.479103355     A.U. after    7 cycles
 SCF Done:  E(RB3LYP) =  -399.479103406     A.U. after    6 cycles
 SCF Done:  E(RB3LYP) =  -399.479105504     A.U. after    9 cycles
 SCF Done:  E(RB3LYP) =  -399.484282872     A.U. after   12 cycles
 SCF Done:  E(RB3LYP) =  -399.484415003     A.U. after   12 cycles
 SCF Done:  E(RB3LYP) =  -399.484624087     A.U. after   11 cycles
 SCF Done:  E(RB3LYP) =  -399.484775327     A.U. after   12 cycles
 SCF Done:  E(RB3LYP) =  -399.484784890     A.U. after   10 cycles
 SCF Done:  E(RB3LYP) =  -399.484779673     A.U. after   10 cycles
 SCF Done:  E(RB3LYP) =  -399.484787814     A.U. after   10 cycles
 SCF Done:  E(RB3LYP) =  -399.484788184     A.U. after   10 cycles
 SCF Done:  E(RB3LYP) =  -399.484789005     A.U. after    9 cycles
 Optimization completed.
    -- Stationary point found.
 Normal termination of Gaussian 16 at Mon May 31 20:50:33 2021.

 ----------------------------------------------------------------------
 #N Geom=AllCheck Guess=TCheck SCRF=Check GenChk RB3LYP/6-31G(2df,p) Fr
 eq
 ----------------------------------------------------------------------

 Structure from the checkpoint file:  "CCCNpCpNdCCtN.chk"
 -------------------
 Title Card Required
 -------------------
 Charge =  0 Multiplicity = 1

                         Standard orientation:
 ---------------------------------------------------------------------
 Center     Atomic      Atomic             Coordinates (Angstroms)
 Number     Number       Type             X           Y           Z
 ---------------------------------------------------------------------
      1          6           0       -3.589168   -1.133490    0.117973
      2          6           0       -2.274282   -0.468685    0.533079
      3          6           0       -1.487140    0.053711   -0.676058
      4          7           0       -0.219255    0.685460   -0.327576
      5          6           0       -0.189218    2.023382    0.230946
      6          7           0        0.831866   -0.109267   -0.314892
      7          6           0        1.979160    0.302290    0.129189
      8          6           0        3.088078   -0.586165    0.087712
      9          7           0        4.025697   -1.268385    0.080608
     10          1           0       -4.135721   -1.503316    0.989926
     11          1           0       -3.409704   -1.984275   -0.548069
     12          1           0       -4.242736   -0.430530   -0.410607
     13          1           0       -1.641941   -1.181647    1.074494
     14          1           0       -2.478444    0.359434    1.223647
     15          1           0       -2.089333    0.779827   -1.235902
     16          1           0       -1.245400   -0.770300   -1.351667
     17          1           0       -1.171402    2.480110    0.107332
     18          1           0        0.552038    2.642457   -0.290024
     19          1           0        0.064556    2.013849    1.300587
     20          1           0        2.165358    1.293473    0.536259
 ---------------------------------------------------------------------

 SCF Done:  E(RB3LYP) =  -399.484789005     A.U. after    1 cycles

 The electronic state is 1-A.
 Alpha  occ. eigenvalues --  -14.40347 -14.38753 -14.31311 -10.24070 -10.23649
 Alpha  occ. eigenvalues --  -10.23292 -10.20622 -10.19839 -10.18938  -1.04549
 Alpha  occ. eigenvalues --   -0.89037  -0.86275  -0.79394  -0.74903  -0.70870
 Alpha  occ. eigenvalues --   -0.62984  -0.59617  -0.55009  -0.53110  -0.49002
 Alpha  occ. eigenvalues --   -0.47534  -0.47294  -0.43238  -0.42300  -0.39810
 Alpha  occ. eigenvalues --   -0.39616  -0.37971  -0.36313  -0.34933  -0.34523
 Alpha  occ. eigenvalues --   -0.32685  -0.31934  -0.29559  -0.22453
 Alpha virt. eigenvalues --   -0.03445   0.04164   0.07104   0.09318   0.09681
 Alpha virt. eigenvalues --    0.11942   0.12474   0.13052   0.13816   0.14423
 Alpha virt. eigenvalues --    0.15301   0.16155   0.17249   0.17385   0.17977

 Mulliken charges:
               1
     1  C   -0.378881
     2  C   -0.176495
     3  C   -0.134948
     4  N    0.052646
     5  C   -0.351696
     6  N   -0.134636
     7  C   -0.188901
     8  C    0.270737
     9  N   -0.336288
    10  H    0.123040
    11  H    0.125282
    12  H    0.117044
    13  H    0.121301
    14  H    0.098601
    15  H    0.108250
    16  H    0.136377
    17  H    0.141384
    18  H    0.145764
    19  H    0.140904
    20  H    0.120514
 Sum of Mulliken charges =  -0.00000

 Dipole moment (field-independent basis, Debye):
    X=             -5.7080    Y=              3.8916    Z=              0.4334  Tot=              6.9220
 Quadrupole moment (field-independent basis, Debye-Ang):
   XX=            -71.9399   YY=            -53.3790   ZZ=            -54.4338
   XY=              9.6663   XZ=              0.8778   YZ=              0.6577

  Exact polarizability: 137.608 -15.057  80.383   5.312   1.910  60.827
 Approx polarizability: 200.644 -35.043 119.784  14.313   2.102  92.689

                      1                      2                      3
                      A                      A                      A
 Frequencies --     38.1494                82.9828                96.3411
 Red. masses --      3.6796                 2.2740                 2.2138
 Frc consts  --      0.0032                 0.0092                 0.0121
 IR Inten    --      1.9640                 1.2258                 2.9846

                      4                      5                      6
                      A                      A                      A
 Frequencies --    141.3951               151.2109               232.2233
 Red. masses --      2.6977                 4.5592                 1.4723
 Frc consts  --      0.0318                 0.0614                 0.0468
 IR Inten    --      2.9224                 1.6441                 0.2770

                      7                      8                      9
                      A                      A                      A
 Frequencies --    235.1708               283.0039               308.8671
 Red. masses --      1.1201                 2.5431                 3.8241
 Frc consts  --      0.0365                 0.1200                 0.2149
 IR Inten    --      0.0870                 2.8384                 1.6949

                     10                     11                     12
                      A                      A                      A
 Frequencies --    332.3825               389.1210               404.7757
 Red. masses --      2.8454                 4.4029                 2.5405
 Frc consts  --      0.1852                 0.3928                 0.2452
 IR Inten    --      4.9968                 2.7089                 1.1816

                     13                     14                     15
                      A                      A                      A
 Frequencies --    550.6038               576.1180               610.1238
 Red. masses --      8.8474                 4.8789                 4.1824
 Frc consts  --      1.5803                 0.9541                 0.9173
 IR Inten    --      1.9699                16.7957                 5.5708

                     16                     17                     18
                      A                      A                      A
 Frequencies --    751.4332               837.1196               851.4966
 Red. masses --      1.0968                 1.5486                 2.8249
 Frc consts  --      0.3649                 0.6394                 1.2068
 IR Inten    --      2.6373                20.1258                 4.1388

                     19                     20                     21
                      A                      A                      A
 Frequencies --    884.5834               911.3489              1038.6696
 Red. masses --      1.3020                 2.0912                 2.9240
 Frc consts  --      0.6002                 1.0233                 1.8586
 IR Inten    --      1.0861                 5.6374                 1.1265

                     22                     23                     24
                      A                      A                      A
 Frequencies --   1057.1037              1075.0849              1118.0654
 Red. masses --      4.1570                 1.6248                 2.0903
 Frc consts  --      2.7370                 1.1065                 1.5396
 IR Inten    --     21.8330                20.4833                15.4368

                     25                     26                     27
                      A                      A                      A
 Frequencies --   1130.0425              1145.5011              1248.8032
 Red. masses --      1.4007                 1.7798                 1.7945
 Frc consts  --      1.0539                 1.3760                 1.6489
 IR Inten    --     24.9368                21.2608                21.7273

                     28                     29                     30
                      A                      A                      A
 Frequencies --   1303.7617              1317.3340              1331.2250
 Red. masses --      1.8873                 1.3172                 1.3177
 Frc consts  --      1.8902                 1.3467                 1.3759
 IR Inten    --     13.9614                14.7918                10.4743

                     31                     32                     33
                      A                      A                      A
 Frequencies --   1376.3458              1400.0992              1403.3222
 Red. masses --      1.6560                 1.6034                 1.5520
 Frc consts  --      1.8482                 1.8519                 1.8008
 IR Inten    --      1.8425                58.1087                70.1230

                     34                     35                     36
                      A                      A                      A
 Frequencies --   1416.3572              1455.0455              1473.8824
 Red. masses --      1.2520                 1.2170                 1.0973
 Frc consts  --      1.4798                 1.5180                 1.4044
 IR Inten    --     12.5448                 2.3217                 7.2223

                     37                     38                     39
                      A                      A                      A
 Frequencies --   1477.6856              1492.0510              1500.6999
 Red. masses --      1.0633                 1.0558                 1.0398
 Frc consts  --      1.3680                 1.3849                 1.3798
 IR Inten    --      6.7057                 0.3451                 6.5287

                     40                     41                     42
                      A                      A                      A
 Frequencies --   1509.0868              1517.1169              1604.4151
 Red. masses --      1.0834                 1.1059                 6.6194
 Frc consts  --      1.4537                 1.4997                10.0392
 IR Inten    --      5.1516                33.4882               247.4748

                     43                     44                     45
                      A                      A                      A
 Frequencies --   2330.5650              2998.9210              3025.6276
 Red. masses --     12.6077                 1.0412                 1.0604
 Frc consts  --     40.3468                 5.5172                 5.7194
 IR Inten    --     63.7055                26.4536                13.1025

                     46                     47                     48
                      A                      A                      A
 Frequencies --   3031.3408              3035.0120              3052.0992
 Red. masses --      1.0509                 1.0537                 1.0992
 Frc consts  --      5.6898                 5.7187                 6.0327
 IR Inten    --      7.3648                64.0343                22.5928

                     49                     50                     51
                      A                      A                      A
 Frequencies --   3066.2800              3098.3267              3111.2103
 Red. masses --      1.0964                 1.1008                 1.1007
 Frc consts  --      6.0738                 6.2261                 6.2776
 IR Inten    --      8.8281                25.4415                23.2735

                     52                     53                     54
                      A                      A                      A
 Frequencies --   3113.4631              3140.0682              3144.4021
 Red. masses --      1.1004                 1.0855                 1.0958
 Frc consts  --      6.2848                 6.3058                 6.3836
 IR Inten    --     25.2841                19.1833                 5.3315

 - Thermochemistry -
 -------------------
 Temperature   298.150 Kelvin.  Pressure   1.00000 Atm.
 Atom     1 has atomic number  6 and mass  12.00000

 Molecular mass:   125.09530 amu.
 Principal axes and moments of inertia in atomic units:
                           1         2         3
     Eigenvalues --   542.499002611.437102993.00058
           X            0.99962   0.02771   0.00004
           Y           -0.02771   0.99947   0.01738
           Z            0.00044  -0.01737   0.99985
 This molecule is an asymmetric top.
 Rotational symmetry number  1.
 Warning -- assumption of classical behavior for rotation
           may cause significant error
 Rotational temperatures (Kelvin)      0.15966     0.03317     0.02894
 Rotational constants (GHZ):           3.32672     0.69109     0.60299
 Zero-point vibrational energy     443859.2 (Joules/Mol)
                                  106.08490 (Kcal/Mol)
 Warning -- explicit consideration of  15 degrees of freedom as
           vibrations may cause significant error
 Vibrational temperatures:     54.89   119.39   138.61   203.44   217.56
          (Kelvin)            334.12   338.36   407.18   444.39   478.22
                              559.86   582.38   792.20   828.91   877.83
                             1081.14  1204.43  1225.11  1272.72  1311.23
                             1494.41  1520.94  1546.81  1608.65  1625.88
                             1648.12  1796.75  1875.82  1895.35  1915.34
                             1980.25  2014.43  2019.07  2037.82  2093.49
                             2120.59  2126.06  2146.73  2159.17  2171.24
                             2182.79  2308.40  3353.16  4314.78  4353.20
                             4361.42  4366.71  4391.29  4411.69  4457.80
                             4476.34  4479.58  4517.86  4524.09

 Zero-point correction=                           0.169057 (Hartree/Particle)
 Thermal correction to Energy=                    0.179558
 Thermal correction to Enthalpy=                  0.180502
 Thermal correction to Gibbs Free Energy=         0.132442
 Sum of electronic and zero-point Energies=           -399.315732
 Sum of electronic and thermal Energies=              -399.305231
 Sum of electronic and thermal Enthalpies=            -399.304287
 Sum of electronic and thermal Free Energies=         -399.352347

                     E (Thermal)             CV                S
                      KCal/Mol        Cal/Mol-Kelvin    Cal/Mol-Kelvin
 Total                  112.674             36.650            101.151
 Electronic               0.000              0.000              0.000
 Translational            0.889              2.981             40.385
 Rotational               0.889              2.981             29.829
 Vibrational            110.897             30.688             30.937
 Vibration     1          0.594              1.982              5.353
 Vibration     2          0.600              1.961              3.819
 Vibration     3          0.603              1.952              3.527
 Vibration     4          0.615              1.912              2.785
 Vibration     5          0.619              1.901              2.657
 Vibration     6          0.653              1.792              1.862
 Vibration     7          0.655              1.787              1.839
 Vibration     8          0.682              1.705              1.515
 Vibration     9          0.698              1.657              1.368
 Vibration    10          0.714              1.611              1.248
 Vibration    11          0.757              1.493              1.004
 Vibration    12          0.770              1.460              0.945
 Vibration    13          0.906              1.138              0.543
 Vibration    14          0.933              1.083              0.493
 Vibration    15          0.969              1.010              0.433

 Optimization completed.
    -- Stationary point found.
 Normal termination of Gaussian 16 at Mon May 31 21:13:52 2021.
