 Gaussian 16, Revision A.03,
 Gaussian 16:  ES64L-G16RevA.03 25-Dec-2016

 -----------------------------
 # opt freq b3lyp/6-31g(2df,p)
 -----------------------------

 -------------------
 Title Card Required
 -------------------
 Symbolic Z-matrix:
 Charge =  0 Multiplicity = 1

 SCF Done:  E(RB3LYP) =  -422.922420073     A.U. after   13 cycles
 SCF Done:  E(RB3LYP) =  -422.935507700     A.U. after   12 cycles
 SCF Done:  E(RB3LYP) =  -422.938757981     A.U. after   13 cycles
 SCF Done:  E(RB3LYP) =  -422.940251984     A.U. after   11 cycles
 SCF Done:  E(RB3LYP) =  -422.941465961     A.U. after   11 cycles
 SCF Done:  E(RB3LYP) =  -422.944026159     A.U. after   12 cycles
 SCF Done:  E(RB3LYP) =  -422.945794336     A.U. after   12 cycles
 SCF Done:  E(RB3LYP) =  -422.947480119     A.U. after   11 cycles
 SCF Done:  E(RB3LYP) =  -422.949431855     A.U. after   13 cycles
 SCF Done:  E(RB3LYP) =  -422.948815286     A.U. after   12 cycles
 SCF Done:  E(RB3LYP) =  -422.951120059     A.U. after   11 cycles
 SCF Done:  E(RB3LYP) =  -422.951877458     A.U. after   11 cycles
 SCF Done:  E(RB3LYP) =  -422.952463447     A.U. after   10 cycles
 SCF Done:  E(RB3LYP) =  -422.952535727     A.U. after    9 cycles
 SCF Done:  E(RB3LYP) =  -422.952554545     A.U. after    9 cycles
 SCF Done:  E(RB3LYP) =  -422.952560497     A.U. after    8 cycles
 SCF Done:  E(RB3LYP) =  -422.952561947     A.U. after    8 cycles
 SCF Done:  E(RB3LYP) =  -422.952562102     A.U. after    6 cycles
 Optimization completed.
    -- Stationary point found.
 Normal termination of Gaussian 16 at Mon May 31 20:01:49 2021.

 ----------------------------------------------------------------------
 #N Geom=AllCheck Guess=TCheck SCRF=Check GenChk RB3LYP/6-31G(2df,p) Fr
 eq
 ----------------------------------------------------------------------

 Structure from the checkpoint file:  "CCCONpCpNCC.chk"
 -------------------
 Title Card Required
 -------------------
 Charge =  0 Multiplicity = 1

                         Standard orientation:
 ---------------------------------------------------------------------
 Center     Atomic      Atomic             Coordinates (Angstroms)
 Number     Number       Type             X           Y           Z
 ---------------------------------------------------------------------
      1          6           0        3.842980   -0.919171    0.243336
      2          6           0        2.609924   -0.481819   -0.551802
      3          6           0        1.512039    0.077209    0.345383
      4          8           0        0.425596    0.453211   -0.485536
      5          7           0       -0.680086    0.962276    0.340428
      6          6           0       -0.746778    2.390001    0.043890
      7          7           0       -1.860045    0.358213   -0.090231
      8          6           0       -1.963636   -1.035299    0.340973
      9          6           0       -3.284285   -1.634389   -0.132502
     10          1           0        4.617283   -1.317075   -0.419002
     11          1           0        3.593119   -1.700538    0.969461
     12          1           0        4.278724   -0.080369    0.797253
     13          1           0        2.203738   -1.328696   -1.117341
     14          1           0        2.885085    0.281553   -1.288829
     15          1           0        1.886668    0.946969    0.908238
     16          1           0        1.188006   -0.671706    1.082064
     17          1           0        0.200032    2.852901    0.329162
     18          1           0       -1.556703    2.823137    0.634060
     19          1           0       -0.928878    2.581820   -1.024892
     20          1           0       -1.920215    0.410758   -1.111908
     21          1           0       -1.910175   -1.037005    1.434502
     22          1           0       -1.121288   -1.638737   -0.029427
     23          1           0       -4.132699   -1.057963    0.247501
     24          1           0       -3.381595   -2.667431    0.213286
     25          1           0       -3.346406   -1.645917   -1.226885
 ---------------------------------------------------------------------

 SCF Done:  E(RB3LYP) =  -422.952562102     A.U. after    1 cycles

 The electronic state is 1-A.
 Alpha  occ. eigenvalues --  -19.14622 -14.38708 -14.33830 -10.21607 -10.20039
 Alpha  occ. eigenvalues --  -10.19813 -10.17789 -10.17472 -10.17460  -1.05791
 Alpha  occ. eigenvalues --   -0.93504  -0.80873  -0.76772  -0.72199  -0.66887
 Alpha  occ. eigenvalues --   -0.62351  -0.60154  -0.58223  -0.51751  -0.48211
 Alpha  occ. eigenvalues --   -0.47316  -0.45984  -0.44400  -0.42474  -0.40658
 Alpha  occ. eigenvalues --   -0.40429  -0.39111  -0.37112  -0.36652  -0.35953
 Alpha  occ. eigenvalues --   -0.35663  -0.34728  -0.33294  -0.32687  -0.26122
 Alpha  occ. eigenvalues --   -0.24747  -0.22439
 Alpha virt. eigenvalues --    0.08814   0.09050   0.09918   0.10871   0.13214
 Alpha virt. eigenvalues --    0.13560   0.15226   0.15363   0.15930   0.16362
 Alpha virt. eigenvalues --    0.17002   0.17735   0.18217   0.18531   0.19537

 Mulliken charges:
               1
     1  C   -0.380228
     2  C   -0.188518
     3  C   -0.010933
     4  O   -0.281336
     5  N   -0.017024
     6  C   -0.272767
     7  N   -0.224045
     8  C   -0.085661
     9  C   -0.393757
    10  H    0.115847
    11  H    0.116606
    12  H    0.116344
    13  H    0.103656
    14  H    0.104388
    15  H    0.083087
    16  H    0.088589
    17  H    0.123343
    18  H    0.131529
    19  H    0.103189
    20  H    0.205247
    21  H    0.110137
    22  H    0.094617
    23  H    0.126584
    24  H    0.117392
    25  H    0.113714
 Sum of Mulliken charges =  -0.00000

 Dipole moment (field-independent basis, Debye):
    X=              0.2962    Y=             -0.2561    Z=             -0.2635  Tot=              0.4720
 Quadrupole moment (field-independent basis, Debye-Ang):
   XX=            -56.2103   YY=            -54.6006   ZZ=            -58.0490
   XY=              1.0362   XZ=              1.5729   YZ=             -0.3468

  Exact polarizability: 107.085   0.201  89.333   1.536  -0.398  74.470
 Approx polarizability: 127.609  -0.649 118.375   0.536   0.038 114.166

                      1                      2                      3
                      A                      A                      A
 Frequencies --     41.1512                52.0193                79.6180
 Red. masses --      3.5243                 1.6097                 1.9680
 Frc consts  --      0.0035                 0.0026                 0.0074
 IR Inten    --      0.2325                 0.1329                 0.2746

                      4                      5                      6
                      A                      A                      A
 Frequencies --    120.0410               140.9110               150.9937
 Red. masses --      2.4303                 2.6727                 2.3874
 Frc consts  --      0.0206                 0.0313                 0.0321
 IR Inten    --      0.1878                 0.7545                 2.2691

                      7                      8                      9
                      A                      A                      A
 Frequencies --    197.2029               233.0348               252.9029
 Red. masses --      2.5633                 1.1025                 1.1725
 Frc consts  --      0.0587                 0.0353                 0.0442
 IR Inten    --      4.6455                 0.0119                 0.9387

                     10                     11                     12
                      A                      A                      A
 Frequencies --    267.3784               315.2677               355.1871
 Red. masses --      1.1722                 3.0779                 2.7379
 Frc consts  --      0.0494                 0.1802                 0.2035
 IR Inten    --      0.4328                 1.1919                 3.8461

                     13                     14                     15
                      A                      A                      A
 Frequencies --    365.0684               480.4089               528.2799
 Red. masses --      3.5915                 3.1259                 3.6614
 Frc consts  --      0.2820                 0.4251                 0.6020
 IR Inten    --      9.5035                 4.2966                 1.5283

                     16                     17                     18
                      A                      A                      A
 Frequencies --    554.8738               763.1103               773.3476
 Red. masses --      3.0473                 1.0797                 3.5877
 Frc consts  --      0.5528                 0.3704                 1.2642
 IR Inten    --      8.3823                 1.0299               179.3846

                     19                     20                     21
                      A                      A                      A
 Frequencies --    803.4916               819.7941               899.8558
 Red. masses --      2.5953                 1.1523                 1.1251
 Frc consts  --      0.9872                 0.4563                 0.5368
 IR Inten    --      4.3313                 2.9806                 1.8737

                     22                     23                     24
                      A                      A                      A
 Frequencies --    914.1633               933.9441               985.3169
 Red. masses --      1.6247                 1.4923                 2.5376
 Frc consts  --      0.8000                 0.7669                 1.4515
 IR Inten    --      6.3865                17.4237                15.8138

                     25                     26                     27
                      A                      A                      A
 Frequencies --   1040.0344              1065.9194              1084.3381
 Red. masses --      3.4530                 3.0818                 3.0323
 Frc consts  --      2.2006                 2.0630                 2.1006
 IR Inten    --     24.5640                72.5047                24.6787

                     28                     29                     30
                      A                      A                      A
 Frequencies --   1116.9227              1138.1757              1152.4500
 Red. masses --      1.8767                 1.8722                 1.8566
 Frc consts  --      1.3794                 1.4290                 1.4528
 IR Inten    --      0.3300                13.5945                21.2632

                     31                     32                     33
                      A                      A                      A
 Frequencies --   1175.2571              1192.2960              1220.0001
 Red. masses --      1.9397                 1.6519                 3.2480
 Frc consts  --      1.5785                 1.3836                 2.8483
 IR Inten    --      4.1369                 0.1629                 9.8335

                     34                     35                     36
                      A                      A                      A
 Frequencies --   1245.9762              1262.3215              1297.0209
 Red. masses --      1.9495                 1.2228                 1.2565
 Frc consts  --      1.7832                 1.1480                 1.2454
 IR Inten    --      2.1015                 0.7765                 0.1923

                     37                     38                     39
                      A                      A                      A
 Frequencies --   1308.1169              1332.4453              1375.7593
 Red. masses --      1.0948                 1.3821                 1.3336
 Frc consts  --      1.1038                 1.4458                 1.4871
 IR Inten    --      0.0449                 6.0780                 8.5530

                     40                     41                     42
                      A                      A                      A
 Frequencies --   1409.4044              1411.5757              1418.4955
 Red. masses --      1.3534                 1.2934                 1.3167
 Frc consts  --      1.5840                 1.5184                 1.5609
 IR Inten    --      4.0634                 4.9906                 9.0470

                     43                     44                     45
                      A                      A                      A
 Frequencies --   1434.6303              1474.8760              1487.0034
 Red. masses --      1.1876                 1.0618                 1.0492
 Frc consts  --      1.4401                 1.3608                 1.3669
 IR Inten    --      0.0383                 1.6296                 3.1842

                     46                     47                     48
                      A                      A                      A
 Frequencies --   1490.9774              1492.1659              1500.1231
 Red. masses --      1.0444                 1.0538                 1.0396
 Frc consts  --      1.3679                 1.3824                 1.3784
 IR Inten    --      8.2712                 0.8645                 1.6897

                     49                     50                     51
                      A                      A                      A
 Frequencies --   1500.4292              1507.5826              1521.6704
 Red. masses --      1.0396                 1.0776                 1.1132
 Frc consts  --      1.3790                 1.4431                 1.5186
 IR Inten    --      6.6085                 1.6056                 0.5270

                     52                     53                     54
                      A                      A                      A
 Frequencies --   1528.0392              1529.9466              2974.3902
 Red. masses --      1.0934                 1.1457                 1.0602
 Frc consts  --      1.5041                 1.5801                 5.5265
 IR Inten    --      6.0059                 9.4271                45.5541

                     55                     56                     57
                      A                      A                      A
 Frequencies --   2989.3614              2990.6824              3014.7898
 Red. masses --      1.0508                 1.0696                 1.0988
 Frc consts  --      5.5327                 5.6365                 5.8842
 IR Inten    --     48.7116                36.2035                32.5182

                     58                     59                     60
                      A                      A                      A
 Frequencies --   3031.4918              3034.1070              3035.3078
 Red. masses --      1.0396                 1.0378                 1.0551
 Frc consts  --      5.6291                 5.6289                 5.7273
 IR Inten    --     18.5365                20.3756                40.5702

                     61                     62                     63
                      A                      A                      A
 Frequencies --   3068.9062              3069.2937              3099.2180
 Red. masses --      1.1029                 1.0905                 1.0817
 Frc consts  --      6.1198                 6.0530                 6.1214
 IR Inten    --     10.4896                 9.0198                16.8098

                     64                     65                     66
                      A                      A                      A
 Frequencies --   3099.7327              3102.2474              3106.6585
 Red. masses --      1.1021                 1.0988                 1.1006
 Frc consts  --      6.2393                 6.2303                 6.2586
 IR Inten    --     61.9168                41.8999                33.6436

                     67                     68                     69
                      A                      A                      A
 Frequencies --   3119.5140              3142.0893              3371.1195
 Red. masses --      1.1024                 1.1044                 1.0721
 Frc consts  --      6.3205                 6.4243                 7.1787
 IR Inten    --     24.9786                18.8330                12.0293

 - Thermochemistry -
 -------------------
 Temperature   298.150 Kelvin.  Pressure   1.00000 Atm.
 Atom     1 has atomic number  6 and mass  12.00000

 Molecular mass:   132.12626 amu.
 Principal axes and moments of inertia in atomic units:
                           1         2         3
     Eigenvalues --   772.729712414.087183000.15157
           X            0.99997   0.00432   0.00572
           Y           -0.00430   0.99999  -0.00321
           Z           -0.00574   0.00318   0.99998
 This molecule is an asymmetric top.
 Rotational symmetry number  1.
 Warning -- assumption of classical behavior for rotation
           may cause significant error
 Rotational temperatures (Kelvin)      0.11209     0.03588     0.02887
 Rotational constants (GHZ):           2.33554     0.74759     0.60155
 Zero-point vibrational energy     592093.0 (Joules/Mol)
                                  141.51363 (Kcal/Mol)
 Warning -- explicit consideration of  16 degrees of freedom as
           vibrations may cause significant error
 Vibrational temperatures:     59.21    74.84   114.55   172.71   202.74
          (Kelvin)            217.25   283.73   335.29   363.87   384.70
                              453.60   511.04   525.25   691.20   760.08
                              798.34  1097.95  1112.67  1156.05  1179.50
                             1294.69  1315.28  1343.74  1417.65  1496.38
                             1533.62  1560.12  1607.00  1637.58  1658.12
                             1690.93  1715.45  1755.31  1792.68  1816.20
                             1866.12  1882.09  1917.09  1979.41  2027.82
                             2030.94  2040.90  2064.11  2122.02  2139.47
                             2145.18  2146.89  2158.34  2158.78  2169.08
                             2189.34  2198.51  2201.25  4279.48  4301.02
                             4302.92  4337.61  4361.64  4365.40  4367.13
                             4415.47  4416.03  4459.08  4459.82  4463.44
                             4469.79  4488.28  4520.77  4850.29

 Zero-point correction=                           0.225516 (Hartree/Particle)
 Thermal correction to Energy=                    0.237422
 Thermal correction to Enthalpy=                  0.238366
 Thermal correction to Gibbs Free Energy=         0.187048
 Sum of electronic and zero-point Energies=           -422.727046
 Sum of electronic and thermal Energies=              -422.715140
 Sum of electronic and thermal Enthalpies=            -422.714196
 Sum of electronic and thermal Free Energies=         -422.765514

                     E (Thermal)             CV                S
                      KCal/Mol        Cal/Mol-Kelvin    Cal/Mol-Kelvin
 Total                  148.985             41.963            108.008
 Electronic               0.000              0.000              0.000
 Translational            0.889              2.981             40.548
 Rotational               0.889              2.981             30.105
 Vibrational            147.207             36.002             37.355
 Vibration     1          0.594              1.981              5.203
 Vibration     2          0.596              1.977              4.739
 Vibration     3          0.600              1.963              3.900
 Vibration     4          0.609              1.933              3.100
 Vibration     5          0.615              1.912              2.791
 Vibration     6          0.618              1.902              2.660
 Vibration     7          0.637              1.844              2.159
 Vibration     8          0.654              1.790              1.855
 Vibration     9          0.664              1.758              1.710
 Vibration    10          0.672              1.733              1.613
 Vibration    11          0.703              1.644              1.335
 Vibration    12          0.731              1.565              1.143
 Vibration    13          0.738              1.544              1.100
 Vibration    14          0.837              1.294              0.709
 Vibration    15          0.883              1.187              0.591
 Vibration    16          0.910              1.129              0.534

                           ! Non-Optimized Parameters !
 Normal termination of Gaussian 16 at Mon May 31 20:35:25 2021.
