 Gaussian 16, Revision A.03,
 Gaussian 16:  ES64L-G16RevA.03 25-Dec-2016

 -----------------------------
 # opt freq b3lyp/6-31g(2df,p)
 -----------------------------

 -------------------
 Title Card Required
 -------------------
 Symbolic Z-matrix:
 Charge =  0 Multiplicity = 1

 SCF Done:  E(RB3LYP) =  -458.459421498     A.U. after   12 cycles
 SCF Done:  E(RB3LYP) =  -458.466092068     A.U. after   10 cycles
 SCF Done:  E(RB3LYP) =  -458.466756140     A.U. after   10 cycles
 SCF Done:  E(RB3LYP) =  -458.466934268     A.U. after   10 cycles
 SCF Done:  E(RB3LYP) =  -458.467026988     A.U. after   10 cycles
 SCF Done:  E(RB3LYP) =  -458.467060853     A.U. after   10 cycles
 SCF Done:  E(RB3LYP) =  -458.467082482     A.U. after    9 cycles
 SCF Done:  E(RB3LYP) =  -458.467122793     A.U. after    9 cycles
 SCF Done:  E(RB3LYP) =  -458.467233173     A.U. after   11 cycles
 SCF Done:  E(RB3LYP) =  -458.468681680     A.U. after   13 cycles
 SCF Done:  E(RB3LYP) =  -458.467973989     A.U. after   12 cycles
 SCF Done:  E(RB3LYP) =  -458.472147185     A.U. after    9 cycles
 SCF Done:  E(RB3LYP) =  -458.472267700     A.U. after    9 cycles
 SCF Done:  E(RB3LYP) =  -458.472399860     A.U. after    9 cycles
 SCF Done:  E(RB3LYP) =  -458.472483442     A.U. after    9 cycles
 SCF Done:  E(RB3LYP) =  -458.472513756     A.U. after    8 cycles
 SCF Done:  E(RB3LYP) =  -458.472517253     A.U. after    7 cycles
 SCF Done:  E(RB3LYP) =  -458.472517583     A.U. after    7 cycles
 SCF Done:  E(RB3LYP) =  -458.472517643     A.U. after    6 cycles
 Optimization completed.
    -- Stationary point found.
 Normal termination of Gaussian 16 at Tue Jun  1 06:47:37 2021.

 ----------------------------------------------------------------------
 #N Geom=AllCheck Guess=TCheck SCRF=Check GenChk RB3LYP/6-31G(2df,p) Fr
 eq
 ----------------------------------------------------------------------

 Structure from the checkpoint file:  "CCCpNpCCNNCN.chk"
 -------------------
 Title Card Required
 -------------------
 Charge =  0 Multiplicity = 1

                         Standard orientation:
 ---------------------------------------------------------------------
 Center     Atomic      Atomic             Coordinates (Angstroms)
 Number     Number       Type             X           Y           Z
 ---------------------------------------------------------------------
      1          6           0       -4.670018    0.125323   -0.253443
      2          6           0       -3.399630   -0.539900    0.282655
      3          6           0       -2.089611    0.100378   -0.221839
      4          7           0       -1.924880    1.520793    0.122559
      5          6           0       -0.870269   -0.682343    0.286669
      6          6           0        0.454156   -0.224252   -0.322723
      7          7           0        1.568471   -0.991144    0.235408
      8          7           0        2.839005   -0.671068   -0.319539
      9          6           0        3.494844    0.398430    0.424245
     10          7           0        4.750816    0.681915   -0.256863
     11          1           0       -5.567110   -0.381756    0.114356
     12          1           0       -4.699626    0.098617   -1.348950
     13          1           0       -4.739299    1.173604    0.056079
     14          1           0       -3.403580   -1.601521    0.003149
     15          1           0       -3.403119   -0.513271    1.381777
     16          1           0       -2.093553    0.051466   -1.321022
     17          1           0       -2.011985    1.638351    1.129964
     18          1           0       -2.667567    2.073953   -0.293043
     19          1           0       -1.022446   -1.749402    0.074768
     20          1           0       -0.806575   -0.592495    1.379500
     21          1           0        0.606166    0.834825   -0.098070
     22          1           0        0.402426   -0.310320   -1.426358
     23          1           0        1.417008   -1.981009    0.068422
     24          1           0        2.755319   -0.372359   -1.293763
     25          1           0        3.587155    0.046202    1.463216
     26          1           0        2.916010    1.338195    0.450724
     27          1           0        5.386439   -0.100809   -0.135284
     28          1           0        5.193629    1.498444    0.150198
 ---------------------------------------------------------------------

 SCF Done:  E(RB3LYP) =  -458.472517643     A.U. after    1 cycles

 The electronic state is 1-A.
 Alpha  occ. eigenvalues --  -14.32446 -14.32056 -14.30640 -14.30114 -10.21406
 Alpha  occ. eigenvalues --  -10.20825 -10.19121 -10.17844 -10.17646 -10.17509
 Alpha  occ. eigenvalues --   -0.95541  -0.88418  -0.87115  -0.78637  -0.76338
 Alpha  occ. eigenvalues --   -0.72210  -0.65431  -0.60882  -0.59299  -0.57256
 Alpha  occ. eigenvalues --   -0.50515  -0.49280  -0.48540  -0.46525  -0.44797
 Alpha  occ. eigenvalues --   -0.44066  -0.42064  -0.41094  -0.40822  -0.38809
 Alpha  occ. eigenvalues --   -0.38278  -0.37950  -0.35667  -0.34186  -0.33605
 Alpha  occ. eigenvalues --   -0.32782  -0.32522  -0.23570  -0.23538  -0.22487
 Alpha  occ. eigenvalues --   -0.21411
 Alpha virt. eigenvalues --    0.07189   0.09340   0.09908   0.11050   0.11310
 Alpha virt. eigenvalues --    0.12972   0.13271   0.14406   0.15281   0.15951
 Alpha virt. eigenvalues --    0.16465   0.17479   0.17606   0.18597   0.19002

 Mulliken charges:
               1
     1  C   -0.393440
     2  C   -0.167440
     3  C    0.036799
     4  N   -0.506265
     5  C   -0.188999
     6  C   -0.125789
     7  N   -0.281554
     8  N   -0.274015
     9  C   -0.054843
    10  N   -0.514868
    11  H    0.115451
    12  H    0.114351
    13  H    0.106228
    14  H    0.092744
    15  H    0.087512
    16  H    0.075782
    17  H    0.219175
    18  H    0.227041
    19  H    0.085582
    20  H    0.099682
    21  H    0.127977
    22  H    0.067189
    23  H    0.220282
    24  H    0.204750
    25  H    0.090467
    26  H    0.081708
    27  H    0.228474
    28  H    0.226020
 Sum of Mulliken charges =  -0.00000

 Dipole moment (field-independent basis, Debye):
    X=             -1.6400    Y=              0.2002    Z=              0.5233  Tot=              1.7331
 Quadrupole moment (field-independent basis, Debye-Ang):
   XX=            -57.8930   YY=            -62.8037   ZZ=            -64.4372
   XY=              1.0784   XZ=              3.1634   YZ=              2.9879

  Exact polarizability: 126.451   3.001  89.278   0.343   0.687  82.407
 Approx polarizability: 138.354   2.789 133.115  -0.411   1.006 128.602

                      1                      2                      3
                      A                      A                      A
 Frequencies --     36.6695                43.3118                66.0953
 Red. masses --      3.4901                 3.2044                 2.4216
 Frc consts  --      0.0028                 0.0035                 0.0062
 IR Inten    --      0.3531                 0.4444                 0.5875

                      4                      5                      6
                      A                      A                      A
 Frequencies --     95.8798               127.3184               133.6658
 Red. masses --      2.3331                 2.9504                 1.9536
 Frc consts  --      0.0126                 0.0282                 0.0206
 IR Inten    --      0.9424                 1.6807                 0.5403

                      7                      8                      9
                      A                      A                      A
 Frequencies --    148.4525               227.9436               239.7015
 Red. masses --      2.1277                 1.1712                 1.7883
 Frc consts  --      0.0276                 0.0359                 0.0605
 IR Inten    --      3.9112                 7.8962                12.4073

                     10                     11                     12
                      A                      A                      A
 Frequencies --    265.5944               271.8999               290.6956
 Red. masses --      2.0306                 1.5154                 1.7776
 Frc consts  --      0.0844                 0.0660                 0.0885
 IR Inten    --      6.9439                14.8535                21.4366

                     13                     14                     15
                      A                      A                      A
 Frequencies --    332.9775               349.6178               436.4934
 Red. masses --      2.5764                 2.8265                 2.2470
 Frc consts  --      0.1683                 0.2036                 0.2522
 IR Inten    --     26.3666                 3.2399                 1.4318

                     16                     17                     18
                      A                      A                      A
 Frequencies --    475.2682               502.4432               585.8913
 Red. masses --      2.6610                 2.4954                 3.4002
 Frc consts  --      0.3541                 0.3712                 0.6877
 IR Inten    --      1.7524                10.9668                 2.8787

                     19                     20                     21
                      A                      A                      A
 Frequencies --    771.3989               778.1032               803.6953
 Red. masses --      1.2238                 1.5382                 1.4993
 Frc consts  --      0.4291                 0.5487                 0.5706
 IR Inten    --      5.9010                67.0340                11.9890

                     22                     23                     24
                      A                      A                      A
 Frequencies --    839.0753               843.7260               889.1476
 Red. masses --      1.6480                 1.3366                 1.4597
 Frc consts  --      0.6836                 0.5606                 0.6799
 IR Inten    --     68.6851                43.6198               139.3822

                     25                     26                     27
                      A                      A                      A
 Frequencies --    910.9046               954.4229               970.9547
 Red. masses --      1.4813                 2.3297                 1.2810
 Frc consts  --      0.7242                 1.2504                 0.7115
 IR Inten    --     97.2420                10.8372                18.4142

                     28                     29                     30
                      A                      A                      A
 Frequencies --   1014.0634              1015.2407              1047.8437
 Red. masses --      1.6184                 1.5395                 2.0278
 Frc consts  --      0.9805                 0.9349                 1.3118
 IR Inten    --      4.7580                 0.6926                 2.6003

                     31                     32                     33
                      A                      A                      A
 Frequencies --   1068.2534              1079.2688              1087.5237
 Red. masses --      2.6152                 1.7646                 3.0062
 Frc consts  --      1.7584                 1.2110                 2.0948
 IR Inten    --      6.2638                 0.4797                33.5828

                     34                     35                     36
                      A                      A                      A
 Frequencies --   1137.7249              1141.6304              1160.3492
 Red. masses --      2.5357                 2.4565                 1.7961
 Frc consts  --      1.9339                 1.8863                 1.4248
 IR Inten    --     14.6603                 3.6040                15.4402

                     37                     38                     39
                      A                      A                      A
 Frequencies --   1170.0857              1225.2253              1233.6796
 Red. masses --      2.0671                 1.6320                 1.5513
 Frc consts  --      1.6674                 1.4435                 1.3911
 IR Inten    --      7.4366                20.3506                 1.6877

                     40                     41                     42
                      A                      A                      A
 Frequencies --   1262.1191              1285.1548              1301.7221
 Red. masses --      1.3779                 1.3250                 1.1425
 Frc consts  --      1.2932                 1.2894                 1.1406
 IR Inten    --      9.1779                 2.4288                 6.5197

                     43                     44                     45
                      A                      A                      A
 Frequencies --   1320.1127              1333.5129              1346.3668
 Red. masses --      1.3160                 1.2970                 1.2719
 Frc consts  --      1.3512                 1.3589                 1.3584
 IR Inten    --      1.8203                 1.5816                 1.7276

                     46                     47                     48
                      A                      A                      A
 Frequencies --   1381.1127              1398.3936              1406.2626
 Red. masses --      1.4170                 1.3907                 1.3317
 Frc consts  --      1.5924                 1.6023                 1.5516
 IR Inten    --      3.1225                 8.8250                12.9514

                     49                     50                     51
                      A                      A                      A
 Frequencies --   1419.3230              1425.5210              1477.0296
 Red. masses --      1.3255                 1.3001                 1.0813
 Frc consts  --      1.5732                 1.5565                 1.3899
 IR Inten    --      2.4357                15.5035                 0.3315

                     52                     53                     54
                      A                      A                      A
 Frequencies --   1485.8090              1487.7555              1500.2186
 Red. masses --      1.1507                 1.0879                 1.0480
 Frc consts  --      1.4968                 1.4187                 1.3897
 IR Inten    --     13.1440                 2.3706                 5.1892

                     55                     56                     57
                      A                      A                      A
 Frequencies --   1506.9991              1508.0823              1525.6637
 Red. masses --      1.1943                 1.0551                 1.1037
 Frc consts  --      1.5980                 1.4138                 1.5136
 IR Inten    --      6.0183                 4.3679                 9.7792

                     58                     59                     60
                      A                      A                      A
 Frequencies --   1538.4262              1643.8928              1655.0775
 Red. masses --      1.0844                 1.1002                 1.0932
 Frc consts  --      1.5121                 1.7518                 1.7644
 IR Inten    --      1.7127                26.2483                18.7270

                     61                     62                     63
                      A                      A                      A
 Frequencies --   2904.0037              2946.1599              2986.9731
 Red. masses --      1.0730                 1.0642                 1.0959
 Frc consts  --      5.3315                 5.4425                 5.7606
 IR Inten    --     66.3922                66.4971                65.1273

                     64                     65                     66
                      A                      A                      A
 Frequencies --   2993.6845              3004.5061              3013.7897
 Red. masses --      1.0797                 1.0611                 1.0619
 Frc consts  --      5.7013                 5.6438                 5.6828
 IR Inten    --      7.9211                 8.2321                55.2069

                     67                     68                     69
                      A                      A                      A
 Frequencies --   3028.8465              3040.5965              3052.5824
 Red. masses --      1.0367                 1.0994                 1.0997
 Frc consts  --      5.6033                 5.9888                 6.0376
 IR Inten    --     32.1304                 2.6009                48.7435

                     70                     71                     72
                      A                      A                      A
 Frequencies --   3092.3882              3094.0959              3102.4903
 Red. masses --      1.0904                 1.0986                 1.1001
 Frc consts  --      6.1435                 6.1965                 6.2389
 IR Inten    --      4.4121                65.6789                32.9616

                     73                     74                     75
                      A                      A                      A
 Frequencies --   3401.9927              3474.8284              3496.5258
 Red. masses --      1.0730                 1.0506                 1.0748
 Frc consts  --      7.3166                 7.4740                 7.7420
 IR Inten    --      8.7369                 0.6326                 2.1455

                     76                     77                     78
                      A                      A                      A
 Frequencies --   3500.0079              3564.7904              3587.1972
 Red. masses --      1.0495                 1.0900                 1.0922
 Frc consts  --      7.5748                 8.1610                 8.2807
 IR Inten    --      0.2574                 0.2516                 0.6899

 - Thermochemistry -
 -------------------
 Temperature   298.150 Kelvin.  Pressure   1.00000 Atm.
 Atom     1 has atomic number  6 and mass  12.00000

 Molecular mass:   146.15315 amu.
 Principal axes and moments of inertia in atomic units:
                           1         2         3
     Eigenvalues --   427.533094841.634485090.49085
           X            0.99999   0.00352   0.00256
           Y           -0.00355   0.99989   0.01470
           Z           -0.00251  -0.01471   0.99989
 This molecule is an asymmetric top.
 Rotational symmetry number  1.
 Rotational temperatures (Kelvin)      0.20259     0.01789     0.01701
 Rotational constants (GHZ):           4.22129     0.37275     0.35453
 Zero-point vibrational energy     677482.6 (Joules/Mol)
                                  161.92224 (Kcal/Mol)
 Warning -- explicit consideration of  18 degrees of freedom as
           vibrations may cause significant error
 Vibrational temperatures:     52.76    62.32    95.10   137.95   183.18
          (Kelvin)            192.32   213.59   327.96   344.88   382.13
                              391.20   418.25   479.08   503.02   628.02
                              683.80   722.90   842.97  1109.87  1119.52
                             1156.34  1207.24  1213.93  1279.29  1310.59
                             1373.20  1396.99  1459.01  1460.70  1507.61
                             1536.98  1552.83  1564.70  1636.93  1642.55
                             1669.48  1683.49  1762.83  1774.99  1815.91
                             1849.05  1872.89  1899.35  1918.63  1937.12
                             1987.11  2011.98  2023.30  2042.09  2051.01
                             2125.12  2137.75  2140.55  2158.48  2168.24
                             2169.79  2195.09  2213.45  2365.20  2381.29
                             4178.21  4238.87  4297.59  4307.24  4322.81
                             4336.17  4357.83  4374.74  4391.99  4449.26
                             4451.71  4463.79  4894.71  4999.50  5030.72
                             5035.73  5128.94  5161.18

 Zero-point correction=                           0.258040 (Hartree/Particle)
 Thermal correction to Energy=                    0.271169
 Thermal correction to Enthalpy=                  0.272114
 Thermal correction to Gibbs Free Energy=         0.217680
 Sum of electronic and zero-point Energies=           -458.214478
 Sum of electronic and thermal Energies=              -458.201348
 Sum of electronic and thermal Enthalpies=            -458.200404
 Sum of electronic and thermal Free Energies=         -458.254838

                     E (Thermal)             CV                S
                      KCal/Mol        Cal/Mol-Kelvin    Cal/Mol-Kelvin
 Total                  170.161             46.899            114.565
 Electronic               0.000              0.000              0.000
 Translational            0.889              2.981             40.849
 Rotational               0.889              2.981             30.733
 Vibrational            168.384             40.938             42.983
 Vibration     1          0.594              1.982              5.431
 Vibration     2          0.595              1.980              5.102
 Vibration     3          0.597              1.970              4.266
 Vibration     4          0.603              1.952              3.536
 Vibration     5          0.611              1.926              2.986
 Vibration     6          0.613              1.920              2.893
 Vibration     7          0.618              1.904              2.692
 Vibration     8          0.651              1.798              1.895
 Vibration     9          0.657              1.780              1.805
 Vibration    10          0.671              1.736              1.625
 Vibration    11          0.675              1.725              1.584
 Vibration    12          0.687              1.691              1.470
 Vibration    13          0.715              1.610              1.246
 Vibration    14          0.727              1.576              1.168
 Vibration    15          0.797              1.391              0.838
 Vibration    16          0.832              1.305              0.723
 Vibration    17          0.858              1.245              0.652
 Vibration    18          0.943              1.062              0.475

 Optimization completed.
    -- Stationary point found.
 Normal termination of Gaussian 16 at Tue Jun  1 07:32:46 2021.
