 Gaussian 16, Revision A.03,
 Gaussian 16:  ES64L-G16RevA.03 25-Dec-2016

 -----------------------------
 # opt freq b3lyp/6-31g(2df,p)
 -----------------------------

 -------------------
 Title Card Required
 -------------------
 Symbolic Z-matrix:
 Charge =  0 Multiplicity = 1

 SCF Done:  E(RB3LYP) =  -425.196410856     A.U. after   13 cycles
 SCF Done:  E(RB3LYP) =  -425.202202274     A.U. after   11 cycles
 SCF Done:  E(RB3LYP) =  -425.203055639     A.U. after   11 cycles
 SCF Done:  E(RB3LYP) =  -425.203377101     A.U. after   11 cycles
 SCF Done:  E(RB3LYP) =  -425.203858494     A.U. after   12 cycles
 SCF Done:  E(RB3LYP) =  -425.203946076     A.U. after   13 cycles
 SCF Done:  E(RB3LYP) =  -425.204379098     A.U. after   10 cycles
 SCF Done:  E(RB3LYP) =  -425.204818098     A.U. after   10 cycles
 SCF Done:  E(RB3LYP) =  -425.204910984     A.U. after   11 cycles
 SCF Done:  E(RB3LYP) =  -425.204932982     A.U. after    9 cycles
 SCF Done:  E(RB3LYP) =  -425.204938377     A.U. after    8 cycles
 SCF Done:  E(RB3LYP) =  -425.204939180     A.U. after    7 cycles
 SCF Done:  E(RB3LYP) =  -425.204939250     A.U. after    7 cycles
 Optimization completed.
    -- Stationary point found.
 Normal termination of Gaussian 16 at Mon May 31 13:43:44 2021.

 ----------------------------------------------------------------------
 #N Geom=AllCheck Guess=TCheck SCRF=Check GenChk RB3LYP/6-31G(2df,p) Fr
 eq
 ----------------------------------------------------------------------

 Structure from the checkpoint file:  "CCCpCpCCNCCdN.chk"
 -------------------
 Title Card Required
 -------------------
 Charge =  0 Multiplicity = 1

                         Standard orientation:
 ---------------------------------------------------------------------
 Center     Atomic      Atomic             Coordinates (Angstroms)
 Number     Number       Type             X           Y           Z
 ---------------------------------------------------------------------
      1          6           0        4.611950   -0.592293    0.358941
      2          6           0        3.232621   -0.854675   -0.254157
      3          6           0        2.123003    0.115784    0.196881
      4          6           0        2.409515    1.558665   -0.246047
      5          6           0        0.756722   -0.379873   -0.312088
      6          6           0       -0.452009    0.379583    0.237397
      7          7           0       -1.696774   -0.212088   -0.245110
      8          6           0       -2.896717    0.441799    0.255529
      9          6           0       -4.133392   -0.147820   -0.381319
     10          7           0       -5.214595   -0.488642    0.188035
     11          1           0        5.326460   -1.362795    0.052595
     12          1           0        4.565758   -0.600448    1.454015
     13          1           0        5.023786    0.373620    0.051644
     14          1           0        2.923364   -1.876571    0.000434
     15          1           0        3.306548   -0.826690   -1.350289
     16          1           0        2.097041    0.097706    1.297506
     17          1           0        2.429446    1.631639   -1.340430
     18          1           0        3.374449    1.911140    0.128532
     19          1           0        1.649877    2.255635    0.119476
     20          1           0        0.648600   -1.439995   -0.041532
     21          1           0        0.729409   -0.340480   -1.408646
     22          1           0       -0.434721    1.422763   -0.100915
     23          1           0       -0.395566    0.411190    1.343247
     24          1           0       -1.720726   -1.196902    0.003340
     25          1           0       -2.839031    1.503010   -0.030888
     26          1           0       -3.003499    0.420633    1.357476
     27          1           0       -4.058489   -0.285375   -1.465268
     28          1           0       -5.153282   -0.319989    1.198415
 ---------------------------------------------------------------------

 SCF Done:  E(RB3LYP) =  -425.204939250     A.U. after    1 cycles

 The electronic state is 1-A.
 Alpha  occ. eigenvalues --  -14.32093 -14.31456 -10.22489 -10.21689 -10.20768
 Alpha  occ. eigenvalues --  -10.18761 -10.17955 -10.17891 -10.17331 -10.17294
 Alpha  occ. eigenvalues --   -0.91791  -0.89008  -0.81345  -0.75111  -0.71691
 Alpha  occ. eigenvalues --   -0.67954  -0.64235  -0.60082  -0.58404  -0.55747
 Alpha  occ. eigenvalues --   -0.49987  -0.47297  -0.46362  -0.46193  -0.44124
 Alpha  occ. eigenvalues --   -0.42528  -0.41665  -0.40032  -0.39233  -0.38435
 Alpha  occ. eigenvalues --   -0.37583  -0.36615  -0.35353  -0.33954  -0.32077
 Alpha  occ. eigenvalues --   -0.32040  -0.31379  -0.30689  -0.25692  -0.23134
 Alpha virt. eigenvalues --   -0.00091   0.07781   0.09020   0.10117   0.10949
 Alpha virt. eigenvalues --    0.11518   0.12464   0.13357   0.14615   0.15285
 Alpha virt. eigenvalues --    0.15986   0.16417   0.17242   0.17354   0.17983

 Mulliken charges:
               1
     1  C   -0.392469
     2  C   -0.166095
     3  C    0.043944
     4  C   -0.390745
     5  C   -0.197096
     6  C   -0.134052
     7  N   -0.300758
     8  C   -0.183962
     9  C    0.056471
    10  N   -0.386489
    11  H    0.112652
    12  H    0.112297
    13  H    0.118569
    14  H    0.090219
    15  H    0.093090
    16  H    0.066819
    17  H    0.112584
    18  H    0.114997
    19  H    0.114518
    20  H    0.084012
    21  H    0.104464
    22  H    0.105113
    23  H    0.075093
    24  H    0.216814
    25  H    0.121126
    26  H    0.078775
    27  H    0.115888
    28  H    0.214224
 Sum of Mulliken charges =  -0.00000

 Dipole moment (field-independent basis, Debye):
    X=              2.4703    Y=              0.5666    Z=              1.2360  Tot=              2.8198
 Quadrupole moment (field-independent basis, Debye-Ang):
   XX=            -83.7291   YY=            -63.9370   ZZ=            -63.5867
   XY=             -4.4195   XZ=             -4.6767   YZ=             -0.7677

  Exact polarizability: 134.733   2.496  88.368  -3.751   0.430  89.209
 Approx polarizability: 154.041   6.582 131.510  -8.352  -0.631 139.939

                      1                      2                      3
                      A                      A                      A
 Frequencies --     37.1107                45.5662                63.5193
 Red. masses --      3.7222                 2.1335                 3.2167
 Frc consts  --      0.0030                 0.0026                 0.0076
 IR Inten    --      1.2277                 0.7191                 2.2906

                      4                      5                      6
                      A                      A                      A
 Frequencies --     83.0451                95.0806               133.4793
 Red. masses --      2.1292                 2.4859                 2.0440
 Frc consts  --      0.0087                 0.0132                 0.0215
 IR Inten    --      0.3781                 0.0780                 2.9712

                      7                      8                      9
                      A                      A                      A
 Frequencies --    140.3507               203.0974               214.9504
 Red. masses --      2.3829                 1.8104                 1.3970
 Frc consts  --      0.0277                 0.0440                 0.0380
 IR Inten    --      1.3355                 0.1867                 0.2445

                     10                     11                     12
                      A                      A                      A
 Frequencies --    246.6771               257.4884               310.4303
 Red. masses --      3.1615                 1.3032                 2.5775
 Frc consts  --      0.1133                 0.0509                 0.1463
 IR Inten    --      0.0196                 0.0859                 0.6759

                     13                     14                     15
                      A                      A                      A
 Frequencies --    363.6490               414.7620               466.2450
 Red. masses --      2.5960                 2.0189                 2.9778
 Frc consts  --      0.2023                 0.2046                 0.3814
 IR Inten    --      2.8793                 0.2552                 0.5474

                     16                     17                     18
                      A                      A                      A
 Frequencies --    477.4225               541.7104               728.6048
 Red. masses --      2.6183                 2.3994                 1.5553
 Frc consts  --      0.3516                 0.4148                 0.4865
 IR Inten    --     11.7254                 5.6908                29.0428

                     19                     20                     21
                      A                      A                      A
 Frequencies --    772.0649               783.0612               801.0093
 Red. masses --      1.1957                 1.3564                 1.3274
 Frc consts  --      0.4199                 0.4900                 0.5018
 IR Inten    --      2.0540                 9.7113                39.5897

                     22                     23                     24
                      A                      A                      A
 Frequencies --    834.4894               916.6996               957.1214
 Red. masses --      1.6921                 2.0754                 1.4041
 Frc consts  --      0.6943                 1.0276                 0.7578
 IR Inten    --      0.1393                 0.7194                 6.2797

                     25                     26                     27
                      A                      A                      A
 Frequencies --    967.1441               985.9223              1020.1600
 Red. masses --      1.8568                 1.4645                 1.8808
 Frc consts  --      1.0233                 0.8388                 1.1533
 IR Inten    --     11.8822                10.5111                 0.4359

                     28                     29                     30
                      A                      A                      A
 Frequencies --   1031.3239              1048.6561              1069.5390
 Red. masses --      2.2760                 2.1840                 2.5762
 Frc consts  --      1.4263                 1.4150                 1.7363
 IR Inten    --      2.9056                 8.4803                 2.5900

                     31                     32                     33
                      A                      A                      A
 Frequencies --   1086.7238              1149.4490              1152.9944
 Red. masses --      2.0841                 1.2084                 2.7471
 Frc consts  --      1.4502                 0.9407                 2.1517
 IR Inten    --      0.6543                64.8927                39.0484

                     34                     35                     36
                      A                      A                      A
 Frequencies --   1158.8603              1168.5962              1181.4842
 Red. masses --      2.1988                 1.5561                 1.6958
 Frc consts  --      1.7398                 1.2521                 1.3947
 IR Inten    --      6.3047                 3.3087                 0.9787

                     37                     38                     39
                      A                      A                      A
 Frequencies --   1212.5544              1251.9131              1268.6525
 Red. masses --      1.5130                 1.3732                 1.2786
 Frc consts  --      1.3107                 1.2680                 1.2125
 IR Inten    --      2.2917                52.1164                10.3036

                     40                     41                     42
                      A                      A                      A
 Frequencies --   1301.5909              1307.1727              1323.1401
 Red. masses --      1.2759                 1.1778                 1.1476
 Frc consts  --      1.2736                 1.1857                 1.1837
 IR Inten    --      3.9146                27.1482                 1.1251

                     43                     44                     45
                      A                      A                      A
 Frequencies --   1336.8567              1362.5184              1380.4112
 Red. masses --      1.2576                 1.3847                 1.3175
 Frc consts  --      1.3242                 1.5146                 1.4792
 IR Inten    --     31.1085                32.0158                 1.7297

                     46                     47                     48
                      A                      A                      A
 Frequencies --   1384.2155              1406.4050              1411.8780
 Red. masses --      1.4962                 1.2834                 1.2787
 Frc consts  --      1.6890                 1.4956                 1.5018
 IR Inten    --      0.4574                 8.1600                 5.4161

                     49                     50                     51
                      A                      A                      A
 Frequencies --   1415.6242              1423.3974              1477.6660
 Red. masses --      1.2273                 1.4573                 1.0809
 Frc consts  --      1.4491                 1.7396                 1.3906
 IR Inten    --      4.1220                 8.6971                 0.2733

                     52                     53                     54
                      A                      A                      A
 Frequencies --   1486.6486              1489.1143              1494.9542
 Red. masses --      1.0993                 1.0794                 1.1186
 Frc consts  --      1.4315                 1.4103                 1.4729
 IR Inten    --      1.8698                 3.0635                12.9037

                     55                     56                     57
                      A                      A                      A
 Frequencies --   1498.0675              1499.3500              1508.0359
 Red. masses --      1.0869                 1.0661                 1.0673
 Frc consts  --      1.4372                 1.4121                 1.4301
 IR Inten    --     10.3380                 1.3875                 5.1807

                     58                     59                     60
                      A                      A                      A
 Frequencies --   1515.4355              1521.4864              1731.9021
 Red. masses --      1.0503                 1.0868                 8.5289
 Frc consts  --      1.4211                 1.4823                15.0726
 IR Inten    --      8.4075                 2.3038                60.1626

                     61                     62                     63
                      A                      A                      A
 Frequencies --   2907.2589              2915.3653              2982.7360
 Red. masses --      1.0728                 1.0713                 1.0811
 Frc consts  --      5.3425                 5.3648                 5.6668
 IR Inten    --     38.1450                98.8314                15.1366

                     64                     65                     66
                      A                      A                      A
 Frequencies --   3001.5431              3008.1023              3010.5501
 Red. masses --      1.0628                 1.0858                 1.0612
 Frc consts  --      5.6413                 5.7890                 5.6667
 IR Inten    --     10.6183                17.7926                42.6938

                     67                     68                     69
                      A                      A                      A
 Frequencies --   3029.9744              3032.4118              3038.5465
 Red. masses --      1.0397                 1.0397                 1.0855
 Frc consts  --      5.6238                 5.6328                 5.9051
 IR Inten    --     16.5001                22.7327                21.9765

                     70                     71                     72
                      A                      A                      A
 Frequencies --   3043.4708              3058.9941              3083.4985
 Red. masses --      1.0967                 1.0978                 1.0879
 Frc consts  --      5.9852                 6.0524                 6.0943
 IR Inten    --      6.2891                69.4105                28.0810

                     73                     74                     75
                      A                      A                      A
 Frequencies --   3096.6068              3097.9095              3104.8300
 Red. masses --      1.1004                 1.0970                 1.1009
 Frc consts  --      6.2167                 6.2027                 6.2526
 IR Inten    --     32.3063                36.1810                50.8278

                     76                     77                     78
                      A                      A                      A
 Frequencies --   3113.0985              3393.7546              3503.1464
 Red. masses --      1.0996                 1.0733                 1.0735
 Frc consts  --      6.2788                 7.2834                 7.7620
 IR Inten    --     32.3785                 5.8891                 0.1198

 - Thermochemistry -
 -------------------
 Temperature   298.150 Kelvin.  Pressure   1.00000 Atm.
 Atom     1 has atomic number  6 and mass  12.00000

 Molecular mass:   142.14700 amu.
 Principal axes and moments of inertia in atomic units:
                           1         2         3
     Eigenvalues --   374.696015175.328725364.20608
           X            0.99999  -0.00328  -0.00202
           Y            0.00329   0.99999   0.00325
           Z            0.00201  -0.00325   0.99999
 This molecule is an asymmetric top.
 Rotational symmetry number  1.
 Rotational temperatures (Kelvin)      0.23116     0.01674     0.01615
 Rotational constants (GHZ):           4.81655     0.34872     0.33644
 Zero-point vibrational energy     671938.1 (Joules/Mol)
                                  160.59706 (Kcal/Mol)
 Warning -- explicit consideration of  17 degrees of freedom as
           vibrations may cause significant error
 Vibrational temperatures:     53.39    65.56    91.39   119.48   136.80
          (Kelvin)            192.05   201.93   292.21   309.27   354.91
                              370.47   446.64   523.21   596.75   670.82
                              686.90   779.40  1048.30  1110.83  1126.65
                             1152.47  1200.64  1318.93  1377.08  1391.50
                             1418.52  1467.78  1483.85  1508.78  1538.83
                             1563.55  1653.80  1658.90  1667.34  1681.35
                             1699.89  1744.60  1801.22  1825.31  1872.70
                             1880.73  1903.70  1923.44  1960.36  1986.10
                             1991.58  2023.50  2031.38  2036.77  2047.95
                             2126.03  2138.96  2142.50  2150.91  2155.39
                             2157.23  2169.73  2180.37  2189.08  2491.82
                             4182.90  4194.56  4291.49  4318.55  4327.99
                             4331.51  4359.46  4362.96  4371.79  4378.88
                             4401.21  4436.47  4455.33  4457.20  4467.16
                             4479.05  4882.86  5040.25

 Zero-point correction=                           0.255928 (Hartree/Particle)
 Thermal correction to Energy=                    0.268941
 Thermal correction to Enthalpy=                  0.269885
 Thermal correction to Gibbs Free Energy=         0.215303
 Sum of electronic and zero-point Energies=           -424.949012
 Sum of electronic and thermal Energies=              -424.935999
 Sum of electronic and thermal Enthalpies=            -424.935054
 Sum of electronic and thermal Free Energies=         -424.989636

                     E (Thermal)             CV                S
                      KCal/Mol        Cal/Mol-Kelvin    Cal/Mol-Kelvin
 Total                  168.763             45.679            114.877
 Electronic               0.000              0.000              0.000
 Translational            0.889              2.981             40.766
 Rotational               0.889              2.981             30.721
 Vibrational            166.985             39.717             43.390
 Vibration     1          0.594              1.982              5.408
 Vibration     2          0.595              1.979              5.001
 Vibration     3          0.597              1.972              4.345
 Vibration     4          0.600              1.961              3.818
 Vibration     5          0.603              1.953              3.553
 Vibration     6          0.613              1.920              2.895
 Vibration     7          0.615              1.913              2.799
 Vibration     8          0.639              1.835              2.105
 Vibration     9          0.645              1.818              2.001
 Vibration    10          0.661              1.768              1.754
 Vibration    11          0.667              1.750              1.679
 Vibration    12          0.699              1.654              1.360
 Vibration    13          0.737              1.547              1.106
 Vibration    14          0.778              1.438              0.910
 Vibration    15          0.824              1.325              0.748
 Vibration    16          0.834              1.300              0.717
 Vibration    17          0.897              1.158              0.562

                           ! Non-Optimized Parameters !
 Normal termination of Gaussian 16 at Mon May 31 14:28:17 2021.
