 Gaussian 16, Revision A.03,
 Gaussian 16:  ES64L-G16RevA.03 25-Dec-2016

 -----------------------------
 # opt freq b3lyp/6-31g(2df,p)
 -----------------------------

 -------------------
 Title Card Required
 -------------------
 Symbolic Z-matrix:
 Charge =  0 Multiplicity = 1

 SCF Done:  E(RB3LYP) =  -307.264884049     A.U. after   13 cycles
 SCF Done:  E(RB3LYP) =  -307.270546595     A.U. after   12 cycles
 SCF Done:  E(RB3LYP) =  -307.272119875     A.U. after   12 cycles
 SCF Done:  E(RB3LYP) =  -307.272699985     A.U. after   11 cycles
 SCF Done:  E(RB3LYP) =  -307.272889190     A.U. after   11 cycles
 SCF Done:  E(RB3LYP) =  -307.273049320     A.U. after   10 cycles
 SCF Done:  E(RB3LYP) =  -307.273073386     A.U. after    9 cycles
 SCF Done:  E(RB3LYP) =  -307.273077005     A.U. after    9 cycles
 SCF Done:  E(RB3LYP) =  -307.273077792     A.U. after    7 cycles
 SCF Done:  E(RB3LYP) =  -307.273078007     A.U. after    7 cycles
 SCF Done:  E(RB3LYP) =  -307.273078089     A.U. after    7 cycles
 SCF Done:  E(RB3LYP) =  -307.273078120     A.U. after    7 cycles
 Optimization completed.
    -- Stationary point found.
 Normal termination of Gaussian 16 at Tue Jun  1 09:06:00 2021.

 ----------------------------------------------------------------------
 #N Geom=AllCheck Guess=TCheck SCRF=Check GenChk RB3LYP/6-31G(2df,p) Fr
 eq
 ----------------------------------------------------------------------

 Structure from the checkpoint file:  "CCCpdNpCpCpN.chk"
 -------------------
 Title Card Required
 -------------------
 Charge =  0 Multiplicity = 1

                         Standard orientation:
 ---------------------------------------------------------------------
 Center     Atomic      Atomic             Coordinates (Angstroms)
 Number     Number       Type             X           Y           Z
 ---------------------------------------------------------------------
      1          6           0        2.783745    0.137628   -0.026697
      2          6           0        1.412449    0.552880    0.503527
      3          6           0        0.239052   -0.276066    0.015795
      4          7           0        0.301867   -1.334430   -0.685115
      5          6           0       -1.142800    0.247490    0.399501
      6          6           0       -1.605197    1.269649   -0.663418
      7          7           0       -2.063719   -0.872202    0.583019
      8          1           0        3.562164    0.795392    0.369493
      9          1           0        2.825282    0.192726   -1.119458
     10          1           0        3.037237   -0.885417    0.270302
     11          1           0        1.215511    1.605514    0.260733
     12          1           0        1.404588    0.512237    1.601773
     13          1           0        1.265314   -1.583862   -0.913152
     14          1           0       -1.044360    0.782460    1.355433
     15          1           0       -1.695002    0.780304   -1.638255
     16          1           0       -0.912025    2.112845   -0.761745
     17          1           0       -2.582806    1.679710   -0.387893
     18          1           0       -1.847333   -1.569653   -0.124918
     19          1           0       -3.019104   -0.565321    0.430104
 ---------------------------------------------------------------------

 SCF Done:  E(RB3LYP) =  -307.273078120     A.U. after    1 cycles

 The electronic state is 1-A.
 Alpha  occ. eigenvalues --  -14.30623 -14.29093 -10.22709 -10.20969 -10.19665
 Alpha  occ. eigenvalues --  -10.18709 -10.17678  -0.91245  -0.85816  -0.77315
 Alpha  occ. eigenvalues --   -0.73126  -0.66670  -0.60949  -0.53915  -0.48453
 Alpha  occ. eigenvalues --   -0.46506  -0.45880  -0.43619  -0.42573  -0.39915
 Alpha  occ. eigenvalues --   -0.38946  -0.37272  -0.36519  -0.34872  -0.33762
 Alpha  occ. eigenvalues --   -0.29638  -0.25733  -0.22320
 Alpha virt. eigenvalues --    0.00890   0.07424   0.10242   0.11846   0.12936
 Alpha virt. eigenvalues --    0.14623   0.15373   0.16387   0.16416   0.17428
 Alpha virt. eigenvalues --    0.19463   0.19824   0.20703   0.21844   0.23875

 Mulliken charges:
               1
     1  C   -0.409490
     2  C   -0.251601
     3  C    0.334422
     4  N   -0.479405
     5  C    0.009196
     6  C   -0.397117
     7  N   -0.526097
     8  H    0.120805
     9  H    0.127076
    10  H    0.128198
    11  H    0.118507
    12  H    0.127578
    13  H    0.217378
    14  H    0.074406
    15  H    0.127901
    16  H    0.109043
    17  H    0.111792
    18  H    0.242120
    19  H    0.215287
 Sum of Mulliken charges =  -0.00000

 Dipole moment (field-independent basis, Debye):
    X=              1.2461    Y=              1.9672    Z=             -0.2944  Tot=              2.3472
 Quadrupole moment (field-independent basis, Debye-Ang):
   XX=            -39.7497   YY=            -46.7725   ZZ=            -46.7352
   XY=             -2.1378   XZ=              1.8261   YZ=              1.3731

  Exact polarizability:  79.850  -1.009  68.299  -0.806   5.081  57.339
 Approx polarizability:  97.637  -1.073 105.523  -1.953  13.093  89.041

                      1                      2                      3
                      A                      A                      A
 Frequencies --     56.9406                81.9609               216.8288
 Red. masses --      3.5979                 1.9363                 2.0317
 Frc consts  --      0.0069                 0.0077                 0.0563
 IR Inten    --      2.2542                 0.8601                 5.0584

                      4                      5                      6
                      A                      A                      A
 Frequencies --    233.0217               256.8928               266.3618
 Red. masses --      1.4061                 1.1813                 1.3357
 Frc consts  --      0.0450                 0.0459                 0.0558
 IR Inten    --      2.3050                 2.3342                34.0842

                      7                      8                      9
                      A                      A                      A
 Frequencies --    271.2369               349.0615               362.0534
 Red. masses --      1.3985                 3.0046                 3.7511
 Frc consts  --      0.0606                 0.2157                 0.2897
 IR Inten    --      6.8271                 1.9998                 5.0183

                     10                     11                     12
                      A                      A                      A
 Frequencies --    463.9691               564.7656               619.3789
 Red. masses --      2.6253                 2.2327                 2.6120
 Frc consts  --      0.3330                 0.4196                 0.5904
 IR Inten    --      1.3957                 0.6861                11.5685

                     13                     14                     15
                      A                      A                      A
 Frequencies --    776.2462               789.0618               866.0913
 Red. masses --      1.7949                 1.7269                 2.4002
 Frc consts  --      0.6372                 0.6335                 1.0608
 IR Inten    --      1.2471                 0.7602                83.3236

                     16                     17                     18
                      A                      A                      A
 Frequencies --    897.5982               928.5450               965.7421
 Red. masses --      1.1665                 1.2549                 2.2104
 Frc consts  --      0.5537                 0.6375                 1.2146
 IR Inten    --     13.6846                91.6662                20.2750

                     19                     20                     21
                      A                      A                      A
 Frequencies --   1029.8842              1036.4554              1080.8937
 Red. masses --      1.6640                 1.6390                 2.0511
 Frc consts  --      1.0399                 1.0373                 1.4119
 IR Inten    --      2.1278                11.0284                32.9511

                     22                     23                     24
                      A                      A                      A
 Frequencies --   1097.5009              1116.8307              1185.7722
 Red. masses --      1.9594                 1.8322                 1.7915
 Frc consts  --      1.3905                 1.3464                 1.4841
 IR Inten    --     10.7635                 1.2896                12.2139

                     25                     26                     27
                      A                      A                      A
 Frequencies --   1213.2410              1288.3869              1308.5047
 Red. masses --      1.3324                 1.1730                 1.4262
 Frc consts  --      1.1555                 1.1472                 1.4388
 IR Inten    --     25.6850                 0.4234                41.6194

                     28                     29                     30
                      A                      A                      A
 Frequencies --   1350.1279              1383.1558              1395.5388
 Red. masses --      1.2578                 1.5166                 1.2241
 Frc consts  --      1.3508                 1.7095                 1.4045
 IR Inten    --      6.6023                17.2445                 2.3855

                     31                     32                     33
                      A                      A                      A
 Frequencies --   1409.9385              1432.1994              1460.7452
 Red. masses --      1.2473                 1.6591                 1.0848
 Frc consts  --      1.4609                 2.0051                 1.3638
 IR Inten    --      4.6302                 9.0131                 6.4191

                     34                     35                     36
                      A                      A                      A
 Frequencies --   1494.5047              1498.5006              1500.4135
 Red. masses --      1.0524                 1.0905                 1.0415
 Frc consts  --      1.3849                 1.4427                 1.3814
 IR Inten    --      5.4080                 1.4607                 5.7996

                     37                     38                     39
                      A                      A                      A
 Frequencies --   1507.5677              1639.6943              1732.1705
 Red. masses --      1.0501                 1.1015                 7.5109
 Frc consts  --      1.4062                 1.7448                13.2776
 IR Inten    --      6.8789                60.5079                44.6030

                     40                     41                     42
                      A                      A                      A
 Frequencies --   2990.9971              3017.6804              3024.4655
 Red. masses --      1.0823                 1.0613                 1.0360
 Frc consts  --      5.7047                 5.6940                 5.5834
 IR Inten    --     31.6957                18.0527                22.4188

                     43                     44                     45
                      A                      A                      A
 Frequencies --   3037.3282              3043.6288              3090.4310
 Red. masses --      1.0361                 1.0969                 1.1007
 Frc consts  --      5.6317                 5.9868                 6.1939
 IR Inten    --     18.3189                11.9413                35.3923

                     46                     47                     48
                      A                      A                      A
 Frequencies --   3103.7191              3110.9657              3112.9436
 Red. masses --      1.1018                 1.1024                 1.1004
 Frc consts  --      6.2536                 6.2863                 6.2829
 IR Inten    --     27.0882                19.3398                26.5860

                     49                     50                     51
                      A                      A                      A
 Frequencies --   3461.2227              3484.3714              3568.9738
 Red. masses --      1.0738                 1.0488                 1.0922
 Frc consts  --      7.5794                 7.5026                 8.1969
 IR Inten    --      1.4726                12.7167                 5.1897

 - Thermochemistry -
 -------------------
 Temperature   298.150 Kelvin.  Pressure   1.00000 Atm.
 Atom     1 has atomic number  6 and mass  12.00000

 Molecular mass:   100.10005 amu.
 Principal axes and moments of inertia in atomic units:
                           1         2         3
     Eigenvalues --   394.812651130.408791296.52260
           X            0.99989  -0.01137   0.00931
           Y            0.01138   0.99993  -0.00107
           Z           -0.00929   0.00117   0.99996
 This molecule is an asymmetric top.
 Rotational symmetry number  1.
 Rotational temperatures (Kelvin)      0.21938     0.07662     0.06680
 Rotational constants (GHZ):           4.57113     1.59654     1.39199
 Zero-point vibrational energy     449643.4 (Joules/Mol)
                                  107.46736 (Kcal/Mol)
 Warning -- explicit consideration of  12 degrees of freedom as
           vibrations may cause significant error
 Vibrational temperatures:     81.92   117.92   311.97   335.27   369.61
          (Kelvin)            383.24   390.25   502.22   520.91   667.55
                              812.57   891.15  1116.85  1135.28  1246.11
                             1291.44  1335.97  1389.49  1481.77  1491.23
                             1555.16  1579.06  1606.87  1706.06  1745.58
                             1853.70  1882.65  1942.53  1990.05  2007.87
                             2028.59  2060.62  2101.69  2150.26  2156.01
                             2158.76  2169.05  2359.15  2492.21  4303.38
                             4341.77  4351.53  4370.04  4379.10  4446.44
                             4465.56  4475.99  4478.83  4979.93  5013.23
                             5134.96

 Zero-point correction=                           0.171260 (Hartree/Particle)
 Thermal correction to Energy=                    0.180057
 Thermal correction to Enthalpy=                  0.181002
 Thermal correction to Gibbs Free Energy=         0.138093
 Sum of electronic and zero-point Energies=           -307.101818
 Sum of electronic and thermal Energies=              -307.093021
 Sum of electronic and thermal Enthalpies=            -307.092076
 Sum of electronic and thermal Free Energies=         -307.134985

                     E (Thermal)             CV                S
                      KCal/Mol        Cal/Mol-Kelvin    Cal/Mol-Kelvin
 Total                  112.988             31.806             90.308
 Electronic               0.000              0.000              0.000
 Translational            0.889              2.981             39.721
 Rotational               0.889              2.981             27.850
 Vibrational            111.210             25.844             22.737
 Vibration     1          0.596              1.975              4.561
 Vibration     2          0.600              1.962              3.843
 Vibration     3          0.646              1.815              1.985
 Vibration     4          0.654              1.790              1.856
 Vibration     5          0.666              1.751              1.683
 Vibration     6          0.672              1.735              1.620
 Vibration     7          0.675              1.726              1.588
 Vibration     8          0.726              1.577              1.170
 Vibration     9          0.736              1.550              1.113
 Vibration    10          0.822              1.330              0.755
 Vibration    11          0.921              1.107              0.514
 Vibration    12          0.979              0.991              0.418

 Optimization completed.
    -- Stationary point found.
 Normal termination of Gaussian 16 at Tue Jun  1 09:29:55 2021.
