 Gaussian 16, Revision A.03,
 Gaussian 16:  ES64L-G16RevA.03 25-Dec-2016

 -----------------------------
 # opt freq b3lyp/6-31g(2df,p)
 -----------------------------

 -------------------
 Title Card Required
 -------------------
 Symbolic Z-matrix:
 Charge =  0 Multiplicity = 1

 SCF Done:  E(RB3LYP) =  -419.142742813     A.U. after   12 cycles
 SCF Done:  E(RB3LYP) =  -419.150875327     A.U. after   11 cycles
 SCF Done:  E(RB3LYP) =  -419.153041951     A.U. after   11 cycles
 SCF Done:  E(RB3LYP) =  -419.154131499     A.U. after   11 cycles
 SCF Done:  E(RB3LYP) =  -419.154766571     A.U. after   11 cycles
 SCF Done:  E(RB3LYP) =  -419.153878204     A.U. after   13 cycles
 SCF Done:  E(RB3LYP) =  -419.156064808     A.U. after   11 cycles
 SCF Done:  E(RB3LYP) =  -419.157026364     A.U. after    9 cycles
 SCF Done:  E(RB3LYP) =  -419.157960173     A.U. after   10 cycles
 SCF Done:  E(RB3LYP) =  -419.158184701     A.U. after    9 cycles
 SCF Done:  E(RB3LYP) =  -419.158303481     A.U. after   10 cycles
 SCF Done:  E(RB3LYP) =  -419.158317525     A.U. after    8 cycles
 SCF Done:  E(RB3LYP) =  -419.158328876     A.U. after    8 cycles
 SCF Done:  E(RB3LYP) =  -419.158331214     A.U. after    7 cycles
 SCF Done:  E(RB3LYP) =  -419.158332059     A.U. after    7 cycles
 SCF Done:  E(RB3LYP) =  -419.158332320     A.U. after    6 cycles
 SCF Done:  E(RB3LYP) =  -419.158332463     A.U. after    6 cycles
 SCF Done:  E(RB3LYP) =  -419.158332501     A.U. after    6 cycles
 Optimization completed.
    -- Stationary point found.
 Normal termination of Gaussian 16 at Tue Jun  1 06:43:05 2021.

 ----------------------------------------------------------------------
 #N Geom=AllCheck Guess=TCheck SCRF=Check GenChk RB3LYP/6-31G(2df,p) Fr
 eq
 ----------------------------------------------------------------------

 Structure from the checkpoint file:  "CCCpCppNpNNCN.chk"
 -------------------
 Title Card Required
 -------------------
 Charge =  0 Multiplicity = 1

                         Standard orientation:
 ---------------------------------------------------------------------
 Center     Atomic      Atomic             Coordinates (Angstroms)
 Number     Number       Type             X           Y           Z
 ---------------------------------------------------------------------
      1          6           0        3.434407   -0.264554   -0.079436
      2          6           0        2.091052   -0.278132   -0.812337
      3          6           0        0.868921    0.093462    0.053190
      4          6           0        0.606514   -0.967085    1.145850
      5          7           0        1.068064    1.433095    0.627378
      6          7           0       -0.250441    0.230963   -0.897968
      7          7           0       -1.494624    0.560991   -0.291216
      8          6           0       -2.465681   -0.529446   -0.243021
      9          7           0       -3.733096    0.035566    0.192352
     10          1           0        4.249237   -0.495972   -0.772267
     11          1           0        3.476504   -1.001571    0.729289
     12          1           0        3.633811    0.723963    0.344915
     13          1           0        1.923590   -1.271780   -1.251377
     14          1           0        2.118686    0.440810   -1.636582
     15          1           0        1.446384   -1.031751    1.845943
     16          1           0        0.457084   -1.964969    0.716140
     17          1           0       -0.283454   -0.695653    1.719992
     18          1           0        1.598061    1.352880    1.490509
     19          1           0        0.146312    1.771959    0.895677
     20          1           0       -0.331901   -0.612904   -1.462230
     21          1           0       -1.915274    1.308656   -0.835766
     22          1           0       -2.058715   -1.319088    0.406896
     23          1           0       -2.629497   -0.982340   -1.239211
     24          1           0       -3.689065    0.264146    1.180471
     25          1           0       -4.482361   -0.636167    0.068305
 ---------------------------------------------------------------------

 SCF Done:  E(RB3LYP) =  -419.158332501     A.U. after    1 cycles

 The electronic state is 1-A.
 Alpha  occ. eigenvalues --  -14.33538 -14.32877 -14.31650 -14.28857 -10.23290
 Alpha  occ. eigenvalues --  -10.22869 -10.16780 -10.16650 -10.16521  -0.97042
 Alpha  occ. eigenvalues --   -0.89485  -0.86019  -0.77762  -0.74225  -0.70022
 Alpha  occ. eigenvalues --   -0.64075  -0.61846  -0.55063  -0.50918  -0.50613
 Alpha  occ. eigenvalues --   -0.48670  -0.45371  -0.43583  -0.42647  -0.41773
 Alpha  occ. eigenvalues --   -0.40850  -0.39754  -0.38843  -0.37824  -0.37247
 Alpha  occ. eigenvalues --   -0.34301  -0.32696  -0.31736  -0.25284  -0.24974
 Alpha  occ. eigenvalues --   -0.22919  -0.20919
 Alpha virt. eigenvalues --    0.07287   0.07805   0.10695   0.12309   0.13313
 Alpha virt. eigenvalues --    0.13482   0.14046   0.15189   0.15707   0.17038
 Alpha virt. eigenvalues --    0.17725   0.17983   0.18392   0.19800   0.21272

 Mulliken charges:
               1
     1  C   -0.404088
     2  C   -0.170464
     3  C    0.312873
     4  C   -0.422222
     5  N   -0.523036
     6  N   -0.310154
     7  N   -0.258225
     8  C   -0.087473
     9  N   -0.511389
    10  H    0.112161
    11  H    0.109898
    12  H    0.126903
    13  H    0.075322
    14  H    0.112337
    15  H    0.105680
    16  H    0.096230
    17  H    0.116532
    18  H    0.215355
    19  H    0.224723
    20  H    0.204654
    21  H    0.234237
    22  H    0.092873
    23  H    0.082391
    24  H    0.232866
    25  H    0.232017
 Sum of Mulliken charges =  -0.00000

 Dipole moment (field-independent basis, Debye):
    X=             -1.4678    Y=             -2.3955    Z=              1.0474  Tot=              2.9983
 Quadrupole moment (field-independent basis, Debye-Ang):
   XX=            -53.7872   YY=            -59.8140   ZZ=            -55.1875
   XY=              2.1807   XZ=             -0.6490   YZ=              2.8340

  Exact polarizability: 108.770  -0.266  76.636   0.107   2.861  76.488
 Approx polarizability: 128.631  -1.303 116.454   1.214   5.543 113.905

                      1                      2                      3
                      A                      A                      A
 Frequencies --     61.2280                77.4424                97.2916
 Red. masses --      3.2851                 3.0329                 1.8527
 Frc consts  --      0.0073                 0.0107                 0.0103
 IR Inten    --      0.8641                 1.3580                 0.9410

                      4                      5                      6
                      A                      A                      A
 Frequencies --    139.7815               203.0612               230.3635
 Red. masses --      2.1140                 2.3707                 1.1528
 Frc consts  --      0.0243                 0.0576                 0.0360
 IR Inten    --      1.0471                 1.2272                29.2445

                      7                      8                      9
                      A                      A                      A
 Frequencies --    254.5247               272.2100               284.8921
 Red. masses --      1.5888                 1.2649                 2.0573
 Frc consts  --      0.0606                 0.0552                 0.0984
 IR Inten    --     19.3890                18.2677                28.2621

                     10                     11                     12
                      A                      A                      A
 Frequencies --    307.5162               322.9102               341.0996
 Red. masses --      2.1116                 1.3256                 2.4880
 Frc consts  --      0.1177                 0.0814                 0.1706
 IR Inten    --      2.8753                 0.6062                 2.6391

                     13                     14                     15
                      A                      A                      A
 Frequencies --    367.0505               416.1211               473.0613
 Red. masses --      2.0283                 2.3528                 2.4240
 Frc consts  --      0.1610                 0.2400                 0.3196
 IR Inten    --      5.1700                 3.2988                 5.9145

                     16                     17                     18
                      A                      A                      A
 Frequencies --    548.4913               594.8760               690.1357
 Red. masses --      2.6466                 3.4720                 2.2406
 Frc consts  --      0.4691                 0.7239                 0.6287
 IR Inten    --      9.9950                 7.1102                34.9125

                     19                     20                     21
                      A                      A                      A
 Frequencies --    764.3713               789.1042               838.2710
 Red. masses --      2.6683                 1.2597                 1.3136
 Frc consts  --      0.9185                 0.4622                 0.5439
 IR Inten    --      0.8767                 0.1364               138.0754

                     22                     23                     24
                      A                      A                      A
 Frequencies --    879.1548               905.2561               952.4325
 Red. masses --      1.8095                 1.6468                 1.2031
 Frc consts  --      0.8240                 0.7951                 0.6430
 IR Inten    --      6.5197               152.3274                74.6037

                     25                     26                     27
                      A                      A                      A
 Frequencies --    973.5372               984.7255               991.3556
 Red. masses --      1.4138                 1.7044                 1.5814
 Frc consts  --      0.7895                 0.9738                 0.9157
 IR Inten    --      2.1983                27.7171                 9.8409

                     28                     29                     30
                      A                      A                      A
 Frequencies --   1015.8519              1068.9328              1085.4557
 Red. masses --      1.7860                 1.9345                 2.9531
 Frc consts  --      1.0859                 1.3023                 2.0500
 IR Inten    --     14.8173                 0.6405                12.5317

                     31                     32                     33
                      A                      A                      A
 Frequencies --   1113.3120              1139.8207              1172.1183
 Red. masses --      1.6595                 3.4971                 1.8799
 Frc consts  --      1.2119                 2.6769                 1.5217
 IR Inten    --      5.2004                41.3644                10.0878

                     34                     35                     36
                      A                      A                      A
 Frequencies --   1195.4121              1237.0040              1287.2584
 Red. masses --      2.3295                 1.5383                 2.6507
 Frc consts  --      1.9613                 1.3868                 2.5879
 IR Inten    --     27.5195                11.8370                 6.1569

                     37                     38                     39
                      A                      A                      A
 Frequencies --   1295.9650              1310.3755              1330.5207
 Red. masses --      1.5220                 1.2313                 1.2948
 Frc consts  --      1.5061                 1.2456                 1.3505
 IR Inten    --     21.2631                 2.5163                 4.2360

                     40                     41                     42
                      A                      A                      A
 Frequencies --   1377.6140              1395.8482              1406.5524
 Red. masses --      1.4692                 1.3508                 1.2480
 Frc consts  --      1.6428                 1.5506                 1.4547
 IR Inten    --      7.4289                 9.6202                 0.8618

                     43                     44                     45
                      A                      A                      A
 Frequencies --   1423.3638              1476.9774              1483.9105
 Red. masses --      1.2701                 1.0735                 1.1001
 Frc consts  --      1.5161                 1.3797                 1.4272
 IR Inten    --     16.6208                 0.1249                 9.1218

                     46                     47                     48
                      A                      A                      A
 Frequencies --   1493.9041              1497.4350              1506.7348
 Red. masses --      1.1038                 1.0664                 1.0555
 Frc consts  --      1.4513                 1.4089                 1.4119
 IR Inten    --     16.0588                 1.6706                 3.1092

                     49                     50                     51
                      A                      A                      A
 Frequencies --   1511.4250              1513.1162              1539.3211
 Red. masses --      1.0727                 1.1927                 1.0886
 Frc consts  --      1.4438                 1.6089                 1.5197
 IR Inten    --      3.7374                18.5956                 1.6236

                     52                     53                     54
                      A                      A                      A
 Frequencies --   1647.4026              1648.3644              2922.6389
 Red. masses --      1.0970                 1.0960                 1.0700
 Frc consts  --      1.7540                 1.7546                 5.3849
 IR Inten    --     21.1341                48.2681                81.2682

                     55                     56                     57
                      A                      A                      A
 Frequencies --   2988.3850              3008.9574              3022.0702
 Red. masses --      1.0887                 1.0659                 1.0390
 Frc consts  --      5.7284                 5.6857                 5.5907
 IR Inten    --     58.4703                27.7611                26.5138

                     58                     59                     60
                      A                      A                      A
 Frequencies --   3037.3707              3079.3871              3086.3593
 Red. masses --      1.0358                 1.0942                 1.0989
 Frc consts  --      5.6300                 6.1134                 6.1674
 IR Inten    --     26.4513                 7.2296                36.9073

                     61                     62                     63
                      A                      A                      A
 Frequencies --   3103.2067              3111.7657              3114.1175
 Red. masses --      1.0994                 1.1009                 1.1006
 Frc consts  --      6.2376                 6.2808                 6.2888
 IR Inten    --     44.3458                15.5716                39.2693

                     64                     65                     66
                      A                      A                      A
 Frequencies --   3458.0771              3476.8198              3493.9486
 Red. masses --      1.0739                 1.0500                 1.0750
 Frc consts  --      7.5661                 7.4780                 7.7317
 IR Inten    --      4.7109                 8.1484                 1.7599

                     67                     68                     69
                      A                      A                      A
 Frequencies --   3506.0096              3555.6019              3592.1307
 Red. masses --      1.0494                 1.0900                 1.0927
 Frc consts  --      7.6002                 8.1190                 8.3070
 IR Inten    --      0.2655                 1.7866                 1.0967

 - Thermochemistry -
 -------------------
 Temperature   298.150 Kelvin.  Pressure   1.00000 Atm.
 Atom     1 has atomic number  6 and mass  12.00000

 Molecular mass:   132.13750 amu.
 Principal axes and moments of inertia in atomic units:
                           1         2         3
     Eigenvalues --   478.901482478.228372497.13720
           X            1.00000   0.00099  -0.00068
           Y           -0.00091   0.99465   0.10330
           Z            0.00077  -0.10330   0.99465
 This molecule is an asymmetric top.
 Rotational symmetry number  1.
 Warning -- assumption of classical behavior for rotation
           may cause significant error
 Rotational temperatures (Kelvin)      0.18086     0.03495     0.03469
 Rotational constants (GHZ):           3.76850     0.72824     0.72272
 Zero-point vibrational energy     601070.3 (Joules/Mol)
                                  143.65925 (Kcal/Mol)
 Warning -- explicit consideration of  17 degrees of freedom as
           vibrations may cause significant error
 Vibrational temperatures:     88.09   111.42   139.98   201.11   292.16
          (Kelvin)            331.44   366.20   391.65   409.90   442.45
                              464.60   490.77   528.10   598.71   680.63
                              789.16   855.89   992.95  1099.76  1135.34
                             1206.09  1264.91  1302.46  1370.34  1400.70
                             1416.80  1426.34  1461.58  1537.96  1561.73
                             1601.81  1639.95  1686.42  1719.93  1779.77
                             1852.08  1864.60  1885.34  1914.32  1982.08
                             2008.31  2023.72  2047.90  2125.04  2135.02
                             2149.39  2154.48  2167.86  2174.60  2177.04
                             2214.74  2370.24  2371.63  4205.03  4299.62
                             4329.22  4348.09  4370.10  4430.55  4440.58
                             4464.82  4477.14  4480.52  4975.40  5002.37
                             5027.01  5044.37  5115.72  5168.27

 Zero-point correction=                           0.228936 (Hartree/Particle)
 Thermal correction to Energy=                    0.240547
 Thermal correction to Enthalpy=                  0.241491
 Thermal correction to Gibbs Free Energy=         0.192322
 Sum of electronic and zero-point Energies=           -418.929397
 Sum of electronic and thermal Energies=              -418.917786
 Sum of electronic and thermal Enthalpies=            -418.916842
 Sum of electronic and thermal Free Energies=         -418.966010

                     E (Thermal)             CV                S
                      KCal/Mol        Cal/Mol-Kelvin    Cal/Mol-Kelvin
 Total                  150.945             43.168            103.483
 Electronic               0.000              0.000              0.000
 Translational            0.889              2.981             40.549
 Rotational               0.889              2.981             29.473
 Vibrational            149.168             37.206             33.462
 Vibration     1          0.597              1.973              4.417
 Vibration     2          0.599              1.964              3.955
 Vibration     3          0.603              1.951              3.508
 Vibration     4          0.615              1.914              2.807
 Vibration     5          0.639              1.836              2.105
 Vibration     6          0.652              1.795              1.876
 Vibration     7          0.665              1.755              1.699
 Vibration     8          0.675              1.725              1.582
 Vibration     9          0.683              1.702              1.504
 Vibration    10          0.697              1.659              1.376
 Vibration    11          0.708              1.630              1.295
 Vibration    12          0.721              1.593              1.207
 Vibration    13          0.740              1.540              1.092
 Vibration    14          0.779              1.435              0.905
 Vibration    15          0.830              1.310              0.729
 Vibration    16          0.904              1.143              0.547
 Vibration    17          0.953              1.043              0.459

 Optimization completed.
    -- Stationary point found.
 Normal termination of Gaussian 16 at Tue Jun  1 07:23:13 2021.
