 Gaussian 16, Revision A.03,
 Gaussian 16:  ES64L-G16RevA.03 25-Dec-2016

 -----------------------------
 # opt freq b3lyp/6-31g(2df,p)
 -----------------------------

 -------------------
 Title Card Required
 -------------------
 Symbolic Z-matrix:
 Charge =  0 Multiplicity = 1

 SCF Done:  E(RB3LYP) =  -404.531351448     A.U. after   14 cycles
 SCF Done:  E(RB3LYP) =  -404.556542466     A.U. after   12 cycles
 SCF Done:  E(RB3LYP) =  -404.557931324     A.U. after   11 cycles
 SCF Done:  E(RB3LYP) =  -404.558177915     A.U. after   11 cycles
 SCF Done:  E(RB3LYP) =  -404.558344690     A.U. after   10 cycles
 SCF Done:  E(RB3LYP) =  -404.558438600     A.U. after   10 cycles
 SCF Done:  E(RB3LYP) =  -404.558474822     A.U. after   10 cycles
 SCF Done:  E(RB3LYP) =  -404.558489034     A.U. after    9 cycles
 SCF Done:  E(RB3LYP) =  -404.558494547     A.U. after    9 cycles
 SCF Done:  E(RB3LYP) =  -404.558496413     A.U. after    8 cycles
 SCF Done:  E(RB3LYP) =  -404.558496689     A.U. after    7 cycles
 SCF Done:  E(RB3LYP) =  -404.558496808     A.U. after    7 cycles
 SCF Done:  E(RB3LYP) =  -404.558496852     A.U. after    7 cycles
 SCF Done:  E(RB3LYP) =  -404.558496883     A.U. after    7 cycles
 SCF Done:  E(RB3LYP) =  -404.558496902     A.U. after    6 cycles
 Optimization completed.
    -- Stationary point found.
 Normal termination of Gaussian 16 at Mon May 31 15:00:04 2021.

 ----------------------------------------------------------------------
 #N Geom=AllCheck Guess=TCheck SCRF=Check GenChk RB3LYP/6-31G(2df,p) Fr
 eq
 ----------------------------------------------------------------------

 Structure from the checkpoint file:  "CCCpCOpCCCtN.chk"
 -------------------
 Title Card Required
 -------------------
 Charge =  0 Multiplicity = 1

                         Standard orientation:
 ---------------------------------------------------------------------
 Center     Atomic      Atomic             Coordinates (Angstroms)
 Number     Number       Type             X           Y           Z
 ---------------------------------------------------------------------
      1          6           0        2.972109   -1.237167    0.284999
      2          6           0        1.549742   -1.285400   -0.284932
      3          6           0        0.614356   -0.134613    0.142400
      4          6           0        1.025192    1.225713   -0.452530
      5          8           0        2.263088    1.734576    0.017591
      6          6           0       -0.840754   -0.468883   -0.249716
      7          6           0       -1.901436    0.377149    0.487982
      8          6           0       -3.264277   -0.002985    0.122294
      9          7           0       -4.334866   -0.316996   -0.178838
     10          1           0        3.539714   -2.117237   -0.033666
     11          1           0        2.953629   -1.238609    1.381430
     12          1           0        3.504802   -0.341759   -0.037092
     13          1           0        1.083497   -2.231749    0.017232
     14          1           0        1.592553   -1.310311   -1.382680
     15          1           0        0.657114   -0.048901    1.241161
     16          1           0        0.226991    1.966978   -0.291639
     17          1           0        1.144351    1.121420   -1.537618
     18          1           0        2.188845    1.869531    0.967757
     19          1           0       -1.039396   -1.523181   -0.033648
     20          1           0       -0.974122   -0.348367   -1.331712
     21          1           0       -1.779065    1.444493    0.276412
     22          1           0       -1.789142    0.257172    1.572216
 ---------------------------------------------------------------------

 SCF Done:  E(RB3LYP) =  -404.558496902     A.U. after    1 cycles

 The electronic state is 1-A.
 Alpha  occ. eigenvalues --  -19.14760 -14.32633 -10.23916 -10.23879 -10.21996
 Alpha  occ. eigenvalues --  -10.21010 -10.20463 -10.18953 -10.17323  -1.02839
 Alpha  occ. eigenvalues --   -0.90108  -0.83618  -0.78413  -0.72817  -0.67478
 Alpha  occ. eigenvalues --   -0.62621  -0.58759  -0.52088  -0.51409  -0.48813
 Alpha  occ. eigenvalues --   -0.46993  -0.45192  -0.42519  -0.41861  -0.40887
 Alpha  occ. eigenvalues --   -0.38588  -0.37504  -0.35876  -0.35170  -0.34593
 Alpha  occ. eigenvalues --   -0.33970  -0.33258  -0.32265  -0.31415  -0.27258
 Alpha virt. eigenvalues --    0.03353   0.03786   0.06168   0.07357   0.09506
 Alpha virt. eigenvalues --    0.09954   0.12323   0.13457   0.14324   0.14744
 Alpha virt. eigenvalues --    0.16162   0.16736   0.18295   0.18379   0.19658

 Mulliken charges:
               1
     1  C   -0.395996
     2  C   -0.177694
     3  C   -0.006689
     4  C   -0.057062
     5  O   -0.411951
     6  C   -0.196677
     7  C   -0.355778
     8  C    0.260601
     9  N   -0.303662
    10  H    0.109813
    11  H    0.103290
    12  H    0.144410
    13  H    0.094677
    14  H    0.099179
    15  H    0.060785
    16  H    0.084431
    17  H    0.117069
    18  H    0.282106
    19  H    0.121596
    20  H    0.121725
    21  H    0.154621
    22  H    0.151205
 Sum of Mulliken charges =  -0.00000

 Dipole moment (field-independent basis, Debye):
    X=              2.9265    Y=              0.5867    Z=              1.6715  Tot=              3.4209
 Quadrupole moment (field-independent basis, Debye-Ang):
   XX=            -83.7280   YY=            -55.7893   ZZ=            -52.4672
   XY=             -5.2967   XZ=             -0.6556   YZ=              2.2639

  Exact polarizability: 106.877   0.381  74.610   3.834   1.731  69.679
 Approx polarizability: 137.976   7.500 106.685   7.887   3.328 109.772

                      1                      2                      3
                      A                      A                      A
 Frequencies --     37.5889                64.7817                76.1012
 Red. masses --      2.8592                 2.2082                 3.0850
 Frc consts  --      0.0024                 0.0055                 0.0105
 IR Inten    --      5.0211                 2.2932                 4.6067

                      4                      5                      6
                      A                      A                      A
 Frequencies --    104.9839               141.7094               215.5665
 Red. masses --      2.7914                 2.8255                 2.3136
 Frc consts  --      0.0181                 0.0334                 0.0633
 IR Inten    --      2.6916                 3.9998                 1.1499

                      7                      8                      9
                      A                      A                      A
 Frequencies --    242.1028               253.5644               295.0633
 Red. masses --      3.2155                 1.5142                 1.1620
 Frc consts  --      0.1110                 0.0574                 0.0596
 IR Inten    --      2.2294                 2.7073               101.6877

                     10                     11                     12
                      A                      A                      A
 Frequencies --    347.0801               350.6716               394.4568
 Red. masses --      3.2111                 3.3296                 3.4264
 Frc consts  --      0.2279                 0.2412                 0.3141
 IR Inten    --      7.4086                 4.5923                 1.0738

                     13                     14                     15
                      A                      A                      A
 Frequencies --    424.8183               484.0479               602.3947
 Red. masses --      2.3623                 3.4803                 3.9374
 Frc consts  --      0.2512                 0.4804                 0.8418
 IR Inten    --      6.9862                 5.0079                 3.1376

                     16                     17                     18
                      A                      A                      A
 Frequencies --    751.1029               778.5189               829.6245
 Red. masses --      1.2709                 1.2872                 1.9814
 Frc consts  --      0.4224                 0.4597                 0.8035
 IR Inten    --      3.0898                 7.5107                 0.6650

                     19                     20                     21
                      A                      A                      A
 Frequencies --    924.6999               940.1600               967.4420
 Red. masses --      1.6668                 3.3427                 1.6442
 Frc consts  --      0.8397                 1.7408                 0.9067
 IR Inten    --     12.9090                 2.2463                 3.0438

                     22                     23                     24
                      A                      A                      A
 Frequencies --   1002.6639              1027.2553              1047.1780
 Red. masses --      3.3896                 1.7335                 3.1245
 Frc consts  --      2.0077                 1.0778                 2.0187
 IR Inten    --      3.0006                 1.9452                 2.1369

                     25                     26                     27
                      A                      A                      A
 Frequencies --   1076.7767              1098.6661              1133.2326
 Red. masses --      3.4847                 1.8830                 1.6855
 Frc consts  --      2.3805                 1.3392                 1.2753
 IR Inten    --    101.4855                 1.3198                 0.2910

                     28                     29                     30
                      A                      A                      A
 Frequencies --   1142.7940              1180.7004              1245.1423
 Red. masses --      2.0986                 1.3292                 1.4291
 Frc consts  --      1.6148                 1.0917                 1.3055
 IR Inten    --      4.7211                 2.9889                 6.5412

                     31                     32                     33
                      A                      A                      A
 Frequencies --   1271.8528              1308.1316              1317.8983
 Red. masses --      1.2543                 1.1620                 1.1859
 Frc consts  --      1.1954                 1.1715                 1.2136
 IR Inten    --      0.1381                 0.6463                 3.4893

                     34                     35                     36
                      A                      A                      A
 Frequencies --   1328.7469              1363.7981              1380.1876
 Red. masses --      1.2540                 1.2752                 1.4199
 Frc consts  --      1.3045                 1.3974                 1.5937
 IR Inten    --      1.3610                 5.2205                 1.2554

                     37                     38                     39
                      A                      A                      A
 Frequencies --   1390.4567              1404.3007              1415.8704
 Red. masses --      1.3585                 1.2668                 1.2298
 Frc consts  --      1.5475                 1.4719                 1.4526
 IR Inten    --      4.6015                16.6466                 6.0879

                     40                     41                     42
                      A                      A                      A
 Frequencies --   1426.7480              1468.8629              1482.4656
 Red. masses --      1.2981                 1.0799                 1.0793
 Frc consts  --      1.5568                 1.3728                 1.3975
 IR Inten    --     19.9214                 1.4106                 0.5149

                     43                     44                     45
                      A                      A                      A
 Frequencies --   1495.9343              1497.6600              1504.1749
 Red. masses --      1.0670                 1.0575                 1.0833
 Frc consts  --      1.4068                 1.3975                 1.4441
 IR Inten    --      7.1923                 6.3288                 0.5713

                     46                     47                     48
                      A                      A                      A
 Frequencies --   1515.3816              2362.6025              2965.3133
 Red. masses --      1.0633                12.6074                 1.0809
 Frc consts  --      1.4386                41.4625                 5.5996
 IR Inten    --      5.8354                12.6599                24.5967

                     49                     50                     51
                      A                      A                      A
 Frequencies --   2979.0990              3010.3258              3031.5136
 Red. masses --      1.0684                 1.0602                 1.0477
 Frc consts  --      5.5869                 5.6605                 5.6729
 IR Inten    --     75.6641                22.8688                24.8792

                     52                     53                     54
                      A                      A                      A
 Frequencies --   3035.4419              3044.9561              3046.1541
 Red. masses --      1.0615                 1.0832                 1.0716
 Frc consts  --      5.7626                 5.9170                 5.8585
 IR Inten    --      3.0350                22.6211                20.2723

                     55                     56                     57
                      A                      A                      A
 Frequencies --   3059.9832              3073.0695              3092.3365
 Red. masses --      1.0922                 1.0990                 1.0991
 Frc consts  --      6.0255                 6.1150                 6.1924
 IR Inten    --     40.7261                 4.6420                41.4379

                     58                     59                     60
                      A                      A                      A
 Frequencies --   3094.6476              3146.2570              3815.7247
 Red. masses --      1.1021                 1.0979                 1.0661
 Frc consts  --      6.2184                 6.4033                 9.1456
 IR Inten    --     25.3038                11.2603                18.1250

 - Thermochemistry -
 -------------------
 Temperature   298.150 Kelvin.  Pressure   1.00000 Atm.
 Atom     1 has atomic number  6 and mass  12.00000

 Molecular mass:   127.09971 amu.
 Principal axes and moments of inertia in atomic units:
                           1         2         3
     Eigenvalues --   565.384232680.777413088.68209
           X            0.99978  -0.02075   0.00106
           Y            0.02074   0.99976   0.00768
           Z           -0.00122  -0.00766   0.99997
 This molecule is an asymmetric top.
 Rotational symmetry number  1.
 Warning -- assumption of classical behavior for rotation
           may cause significant error
 Rotational temperatures (Kelvin)      0.15319     0.03231     0.02804
 Rotational constants (GHZ):           3.19206     0.67322     0.58431
 Zero-point vibrational energy     505486.7 (Joules/Mol)
                                  120.81423 (Kcal/Mol)
 Warning -- explicit consideration of  15 degrees of freedom as
           vibrations may cause significant error
 Vibrational temperatures:     54.08    93.21   109.49   151.05   203.89
          (Kelvin)            310.15   348.33   364.82   424.53   499.37
                              504.54   567.54   611.22   696.44   866.71
                             1080.67  1120.12  1193.64  1330.44  1352.68
                             1391.93  1442.61  1477.99  1506.66  1549.24
                             1580.74  1630.47  1644.23  1698.76  1791.48
                             1829.91  1882.11  1896.16  1911.77  1962.20
                             1985.78  2000.56  2020.48  2037.12  2052.77
                             2113.37  2132.94  2152.32  2154.80  2164.17
                             2180.30  3399.26  4266.42  4286.26  4331.19
                             4361.67  4367.32  4381.01  4382.74  4402.63
                             4421.46  4449.18  4452.51  4526.76  5489.98

 Zero-point correction=                           0.192530 (Hartree/Particle)
 Thermal correction to Energy=                    0.203588
 Thermal correction to Enthalpy=                  0.204533
 Thermal correction to Gibbs Free Energy=         0.154962
 Sum of electronic and zero-point Energies=           -404.365967
 Sum of electronic and thermal Energies=              -404.354909
 Sum of electronic and thermal Enthalpies=            -404.353964
 Sum of electronic and thermal Free Energies=         -404.403535

                     E (Thermal)             CV                S
                      KCal/Mol        Cal/Mol-Kelvin    Cal/Mol-Kelvin
 Total                  127.754             38.702            104.331
 Electronic               0.000              0.000              0.000
 Translational            0.889              2.981             40.433
 Rotational               0.889              2.981             29.927
 Vibrational            125.976             32.740             33.971
 Vibration     1          0.594              1.982              5.382
 Vibration     2          0.597              1.971              4.306
 Vibration     3          0.599              1.965              3.989
 Vibration     4          0.605              1.945              3.360
 Vibration     5          0.615              1.912              2.781
 Vibration     6          0.645              1.817              1.996
 Vibration     7          0.658              1.776              1.787
 Vibration     8          0.665              1.757              1.706
 Vibration     9          0.689              1.683              1.445
 Vibration    10          0.725              1.581              1.179
 Vibration    11          0.728              1.574              1.163
 Vibration    12          0.761              1.482              0.983
 Vibration    13          0.787              1.416              0.876
 Vibration    14          0.840              1.285              0.699
 Vibration    15          0.961              1.027              0.446

 Optimization completed.
    -- Stationary point found.
 Normal termination of Gaussian 16 at Mon May 31 15:29:52 2021.
