 Gaussian 16, Revision A.03,
 Gaussian 16:  ES64L-G16RevA.03 25-Dec-2016

 -----------------------------
 # opt freq b3lyp/6-31g(2df,p)
 -----------------------------

 -------------------
 Title Card Required
 -------------------
 Symbolic Z-matrix:
 Charge =  0 Multiplicity = 1

 SCF Done:  E(RB3LYP) =  -308.450054532     A.U. after   12 cycles
 SCF Done:  E(RB3LYP) =  -308.454733887     A.U. after   10 cycles
 SCF Done:  E(RB3LYP) =  -308.455753599     A.U. after   10 cycles
 SCF Done:  E(RB3LYP) =  -308.455820465     A.U. after    9 cycles
 SCF Done:  E(RB3LYP) =  -308.455831572     A.U. after    8 cycles
 SCF Done:  E(RB3LYP) =  -308.455834041     A.U. after    7 cycles
 SCF Done:  E(RB3LYP) =  -308.455834625     A.U. after    7 cycles
 SCF Done:  E(RB3LYP) =  -308.455834725     A.U. after    6 cycles
 SCF Done:  E(RB3LYP) =  -308.455834749     A.U. after    6 cycles
 Optimization completed.
    -- Stationary point found.
 Normal termination of Gaussian 16 at Mon May 31 14:35:19 2021.

 ----------------------------------------------------------------------
 #N Geom=AllCheck Guess=TCheck SCRF=Check GenChk RB3LYP/6-31G(2df,p) Fr
 eq
 ----------------------------------------------------------------------

 Structure from the checkpoint file:  "CCCpCpCNN.chk"
 -------------------
 Title Card Required
 -------------------
 Charge =  0 Multiplicity = 1

                         Standard orientation:
 ---------------------------------------------------------------------
 Center     Atomic      Atomic             Coordinates (Angstroms)
 Number     Number       Type             X           Y           Z
 ---------------------------------------------------------------------
      1          6           0       -3.058414   -0.408489   -0.253150
      2          6           0       -1.674267   -0.746687    0.310199
      3          6           0       -0.525710    0.128739   -0.227803
      4          6           0       -0.667345    1.595518    0.206956
      5          6           0        0.822859   -0.466349    0.206937
      6          7           0        1.962334    0.208187   -0.408952
      7          7           0        3.233699   -0.301040    0.001473
      8          1           0       -3.811717   -1.109298    0.120229
      9          1           0       -3.063957   -0.467371   -1.347361
     10          1           0       -3.384010    0.597951    0.026566
     11          1           0       -1.448974   -1.795891    0.079734
     12          1           0       -1.697524   -0.676220    1.406609
     13          1           0       -0.552258    0.091790   -1.325601
     14          1           0       -0.581328    1.690487    1.296650
     15          1           0       -1.636113    2.009003   -0.086406
     16          1           0        0.095974    2.233126   -0.249681
     17          1           0        0.866381   -1.519088   -0.101472
     18          1           0        0.884544   -0.462749    1.315562
     19          1           0        1.962589    1.189993   -0.157702
     20          1           0        3.417875   -1.129402   -0.558264
     21          1           0        3.193557   -0.618753    0.974657
 ---------------------------------------------------------------------

 SCF Done:  E(RB3LYP) =  -308.455834749     A.U. after    1 cycles

 The electronic state is 1-A.
 Alpha  occ. eigenvalues --  -14.32965 -14.32803 -10.19914 -10.18520 -10.17932
 Alpha  occ. eigenvalues --  -10.17408 -10.17296  -0.95004  -0.81477  -0.76083
 Alpha  occ. eigenvalues --   -0.71594  -0.66850  -0.61307  -0.55822  -0.49662
 Alpha  occ. eigenvalues --   -0.46978  -0.46560  -0.45237  -0.41968  -0.41261
 Alpha  occ. eigenvalues --   -0.39984  -0.37901  -0.36392  -0.34912  -0.32796
 Alpha  occ. eigenvalues --   -0.32156  -0.31957  -0.24194  -0.22661
 Alpha virt. eigenvalues --    0.07863   0.08929   0.10981   0.11887   0.12923
 Alpha virt. eigenvalues --    0.14641   0.14985   0.15871   0.16938   0.17283
 Alpha virt. eigenvalues --    0.17869   0.19672   0.20113   0.22497   0.23270

 Mulliken charges:
               1
     1  C   -0.391026
     2  C   -0.165667
     3  C    0.034902
     4  C   -0.402377
     5  C   -0.119455
     6  N   -0.284534
     7  N   -0.467861
     8  H    0.112315
     9  H    0.115095
    10  H    0.118211
    11  H    0.092024
    12  H    0.092056
    13  H    0.082371
    14  H    0.110897
    15  H    0.118429
    16  H    0.116904
    17  H    0.090755
    18  H    0.065733
    19  H    0.230639
    20  H    0.238591
    21  H    0.211997
 Sum of Mulliken charges =   0.00000

 Dipole moment (field-independent basis, Debye):
    X=             -1.0676    Y=             -0.7495    Z=              1.0434  Tot=              1.6704
 Quadrupole moment (field-independent basis, Debye-Ang):
   XX=            -51.2125   YY=            -43.7389   ZZ=            -46.6198
   XY=             -3.4073   XZ=              2.5499   YZ=              0.5458

  Exact polarizability:  85.908  -1.831  67.862   1.030  -0.341  61.821
 Approx polarizability: 100.938  -2.603  96.475   0.276  -0.679  95.445

                      1                      2                      3
                      A                      A                      A
 Frequencies --     68.8858                83.4190               106.4742
 Red. masses --      1.9173                 2.1011                 2.2846
 Frc consts  --      0.0054                 0.0086                 0.0153
 IR Inten    --      0.5563                 4.7209                 0.7905

                      4                      5                      6
                      A                      A                      A
 Frequencies --    158.5487               214.2444               253.0614
 Red. masses --      3.2186                 1.0614                 1.2501
 Frc consts  --      0.0477                 0.0287                 0.0472
 IR Inten    --      1.6715                 0.0714                 0.6441

                      7                      8                      9
                      A                      A                      A
 Frequencies --    301.2330               339.3446               352.6894
 Red. masses --      2.3744                 2.9604                 1.2358
 Frc consts  --      0.1269                 0.2009                 0.0906
 IR Inten    --      0.8152                 1.8574                27.4655

                     10                     11                     12
                      A                      A                      A
 Frequencies --    381.6430               428.8390               528.1022
 Red. masses --      2.5078                 2.1350                 2.4186
 Frc consts  --      0.2152                 0.2313                 0.3974
 IR Inten    --      1.3414                 0.9246                 1.5181

                     13                     14                     15
                      A                      A                      A
 Frequencies --    774.1456               795.3484               826.7161
 Red. masses --      1.2936                 1.6559                 1.9509
 Frc consts  --      0.4568                 0.6172                 0.7856
 IR Inten    --      2.5858                79.3434                 0.0983

                     16                     17                     18
                      A                      A                      A
 Frequencies --    916.6104               923.9409               972.0179
 Red. masses --      1.2956                 2.1101                 1.4246
 Frc consts  --      0.6414                 1.0613                 0.7930
 IR Inten    --      3.5648                 6.2496                64.3781

                     19                     20                     21
                      A                      A                      A
 Frequencies --    977.6708              1019.8285              1044.5760
 Red. masses --      1.2299                 1.6846                 2.4543
 Frc consts  --      0.6926                 1.0323                 1.5778
 IR Inten    --      8.3839                 8.1929                 0.9092

                     22                     23                     24
                      A                      A                      A
 Frequencies --   1088.5947              1148.5868              1160.3938
 Red. masses --      2.2771                 2.5862                 2.2044
 Frc consts  --      1.5899                 2.0102                 1.7488
 IR Inten    --      6.0750                31.8262                 1.9559

                     25                     26                     27
                      A                      A                      A
 Frequencies --   1182.9400              1198.5167              1250.0674
 Red. masses --      1.8137                 1.9697                 1.2441
 Frc consts  --      1.4953                 1.6670                 1.1454
 IR Inten    --     10.8301                 7.4712                 6.0026

                     28                     29                     30
                      A                      A                      A
 Frequencies --   1291.7076              1309.6691              1340.1254
 Red. masses --      1.2844                 1.1618                 1.2842
 Frc consts  --      1.2626                 1.1741                 1.3589
 IR Inten    --      3.0687                 1.4751                 7.1707

                     31                     32                     33
                      A                      A                      A
 Frequencies --   1373.6722              1380.9886              1391.4070
 Red. masses --      1.3129                 1.3742                 1.4591
 Frc consts  --      1.4597                 1.5441                 1.6643
 IR Inten    --      0.4531                 1.9982                 6.1916

                     34                     35                     36
                      A                      A                      A
 Frequencies --   1412.7584              1415.8539              1482.2565
 Red. masses --      1.2678                 1.2476                 1.0709
 Frc consts  --      1.4908                 1.4735                 1.3863
 IR Inten    --      1.3474                 5.0146                 0.3735

                     37                     38                     39
                      A                      A                      A
 Frequencies --   1492.3415              1496.0354              1501.2124
 Red. masses --      1.0793                 1.0503                 1.0735
 Frc consts  --      1.4162                 1.3850                 1.4254
 IR Inten    --      4.1374                 2.1288                 2.8231

                     40                     41                     42
                      A                      A                      A
 Frequencies --   1509.2418              1513.5928              1528.1869
 Red. masses --      1.0650                 1.0721                 1.0806
 Frc consts  --      1.4293                 1.4471                 1.4869
 IR Inten    --      4.6995                 9.1917                 6.4818

                     43                     44                     45
                      A                      A                      A
 Frequencies --   1682.6622              2883.6270              3006.1037
 Red. masses --      1.0640                 1.0720                 1.0667
 Frc consts  --      1.7750                 5.2521                 5.6795
 IR Inten    --     15.4083                68.5074                 6.3927

                     46                     47                     48
                      A                      A                      A
 Frequencies --   3015.0924              3028.0246              3028.6770
 Red. masses --      1.0726                 1.0416                 1.0875
 Frc consts  --      5.7450                 5.6268                 5.8776
 IR Inten    --     32.4566                20.4789                19.3796

                     49                     50                     51
                      A                      A                      A
 Frequencies --   3033.5603              3046.3028              3094.4669
 Red. masses --      1.0378                 1.0982                 1.0981
 Frc consts  --      5.6269                 6.0044                 6.1953
 IR Inten    --     25.2963                47.2228                25.0653

                     52                     53                     54
                      A                      A                      A
 Frequencies --   3098.5289              3103.1125              3111.3683
 Red. masses --      1.1009                 1.1010                 1.0986
 Frc consts  --      6.2273                 6.2462                 6.2662
 IR Inten    --     43.9229                43.3099                33.3341

                     55                     56                     57
                      A                      A                      A
 Frequencies --   3370.9941              3515.2045              3535.2478
 Red. masses --      1.0566                 1.0818                 1.0756
 Frc consts  --      7.0743                 7.8757                 7.9202
 IR Inten    --     21.8940                 0.7782                 0.4908

 - Thermochemistry -
 -------------------
 Temperature   298.150 Kelvin.  Pressure   1.00000 Atm.
 Atom     1 has atomic number  6 and mass  12.00000

 Molecular mass:   102.11570 amu.
 Principal axes and moments of inertia in atomic units:
                           1         2         3
     Eigenvalues --   297.745191608.901311790.17821
           X            0.99996  -0.00528   0.00727
           Y            0.00526   0.99998   0.00252
           Z           -0.00728  -0.00248   0.99997
 This molecule is an asymmetric top.
 Rotational symmetry number  1.
 Rotational temperatures (Kelvin)      0.29090     0.05383     0.04838
 Rotational constants (GHZ):           6.06136     1.12172     1.00813
 Zero-point vibrational energy     511334.6 (Joules/Mol)
                                  122.21189 (Kcal/Mol)
 Warning -- explicit consideration of  12 degrees of freedom as
           vibrations may cause significant error
 Vibrational temperatures:     99.11   120.02   153.19   228.12   308.25
          (Kelvin)            364.10   433.41   488.24   507.44   549.10
                              617.00   759.82  1113.82  1144.33  1189.46
                             1318.80  1329.34  1398.52  1406.65  1467.31
                             1502.91  1566.24  1652.56  1669.55  1701.99
                             1724.40  1798.57  1858.48  1884.32  1928.14
                             1976.41  1986.93  2001.92  2032.64  2037.10
                             2132.64  2147.15  2152.46  2159.91  2171.46
                             2177.72  2198.72  2420.98  4148.90  4325.11
                             4338.05  4356.65  4357.59  4364.62  4382.95
                             4452.25  4458.09  4464.69  4476.56  4850.11
                             5057.60  5086.43

 Zero-point correction=                           0.194757 (Hartree/Particle)
 Thermal correction to Energy=                    0.204193
 Thermal correction to Enthalpy=                  0.205137
 Thermal correction to Gibbs Free Energy=         0.160620
 Sum of electronic and zero-point Energies=           -308.261078
 Sum of electronic and thermal Energies=              -308.251642
 Sum of electronic and thermal Enthalpies=            -308.250698
 Sum of electronic and thermal Free Energies=         -308.295215

                     E (Thermal)             CV                S
                      KCal/Mol        Cal/Mol-Kelvin    Cal/Mol-Kelvin
 Total                  128.133             33.536             93.694
 Electronic               0.000              0.000              0.000
 Translational            0.889              2.981             39.780
 Rotational               0.889              2.981             28.241
 Vibrational            126.355             27.574             25.673
 Vibration     1          0.598              1.969              4.185
 Vibration     2          0.600              1.961              3.809
 Vibration     3          0.605              1.944              3.332
 Vibration     4          0.621              1.893              2.567
 Vibration     5          0.644              1.819              2.007
 Vibration     6          0.664              1.758              1.709
 Vibration     7          0.693              1.671              1.410
 Vibration     8          0.719              1.597              1.215
 Vibration     9          0.729              1.570              1.154
 Vibration    10          0.751              1.509              1.033
 Vibration    11          0.790              1.407              0.862
 Vibration    12          0.883              1.188              0.591

 Optimization completed.
    -- Stationary point found.
 Normal termination of Gaussian 16 at Mon May 31 14:57:28 2021.
