 Gaussian 16, Revision A.03,
 Gaussian 16:  ES64L-G16RevA.03 25-Dec-2016

 -----------------------------
 # opt freq b3lyp/6-31g(2df,p)
 -----------------------------

 -------------------
 Title Card Required
 -------------------
 Symbolic Z-matrix:
 Charge =  0 Multiplicity = 1

 SCF Done:  E(RB3LYP) =  -347.793641586     A.U. after   12 cycles
 SCF Done:  E(RB3LYP) =  -347.797916854     A.U. after   10 cycles
 SCF Done:  E(RB3LYP) =  -347.798717717     A.U. after    9 cycles
 SCF Done:  E(RB3LYP) =  -347.798884957     A.U. after    9 cycles
 SCF Done:  E(RB3LYP) =  -347.798971810     A.U. after    9 cycles
 SCF Done:  E(RB3LYP) =  -347.798985322     A.U. after    8 cycles
 SCF Done:  E(RB3LYP) =  -347.798995249     A.U. after    8 cycles
 SCF Done:  E(RB3LYP) =  -347.798996335     A.U. after    7 cycles
 SCF Done:  E(RB3LYP) =  -347.798996806     A.U. after    7 cycles
 SCF Done:  E(RB3LYP) =  -347.798996995     A.U. after    6 cycles
 Optimization completed.
    -- Stationary point found.
 Normal termination of Gaussian 16 at Tue Jun  1 05:45:55 2021.

 ----------------------------------------------------------------------
 #N Geom=AllCheck Guess=TCheck SCRF=Check GenChk RB3LYP/6-31G(2df,p) Fr
 eq
 ----------------------------------------------------------------------

 Structure from the checkpoint file:  "CCCpCpCNCN.chk"
 -------------------
 Title Card Required
 -------------------
 Charge =  0 Multiplicity = 1

                         Standard orientation:
 ---------------------------------------------------------------------
 Center     Atomic      Atomic             Coordinates (Angstroms)
 Number     Number       Type             X           Y           Z
 ---------------------------------------------------------------------
      1          6           0       -3.603697   -0.313547   -0.410793
      2          6           0       -2.275621   -0.724294    0.233440
      3          6           0       -1.061277    0.124073   -0.189432
      4          6           0       -1.179670    1.579967    0.283752
      5          6           0        0.231367   -0.533642    0.319397
      6          7           0        1.432969    0.135589   -0.162601
      7          6           0        2.667256   -0.547445    0.179674
      8          7           0        3.777953    0.263106   -0.303251
      9          1           0       -4.406880   -0.997021   -0.117584
     10          1           0       -3.534359   -0.332988   -1.504307
     11          1           0       -3.910740    0.694527   -0.116198
     12          1           0       -2.072596   -1.773089   -0.019784
     13          1           0       -2.374144   -0.691975    1.327503
     14          1           0       -1.007663    0.125317   -1.287026
     15          1           0       -1.181230    1.636747    1.379704
     16          1           0       -2.101804    2.046596   -0.073691
     17          1           0       -0.351841    2.192055   -0.086935
     18          1           0        0.264478   -1.569306   -0.043907
     19          1           0        0.191833   -0.598503    1.425832
     20          1           0        1.494167    1.077982    0.209386
     21          1           0        2.611213   -1.561025   -0.256991
     22          1           0        2.809845   -0.682619    1.269449
     23          1           0        3.761492    0.280698   -1.318812
     24          1           0        4.661628   -0.148934   -0.021908
 ---------------------------------------------------------------------

 SCF Done:  E(RB3LYP) =  -347.798996995     A.U. after    1 cycles

 The electronic state is 1-A.
 Alpha  occ. eigenvalues --  -14.30429 -14.30196 -10.22263 -10.19539 -10.17873
 Alpha  occ. eigenvalues --  -10.17468 -10.16953 -10.16834  -0.91422  -0.84863
 Alpha  occ. eigenvalues --   -0.79338  -0.72131  -0.67296  -0.62928  -0.60063
 Alpha  occ. eigenvalues --   -0.55239  -0.50036  -0.48130  -0.45663  -0.44339
 Alpha  occ. eigenvalues --   -0.42154  -0.40751  -0.39959  -0.39260  -0.37813
 Alpha  occ. eigenvalues --   -0.37266  -0.35776  -0.34193  -0.31632  -0.31425
 Alpha  occ. eigenvalues --   -0.31234  -0.23748  -0.21579
 Alpha virt. eigenvalues --    0.08377   0.09235   0.11444   0.11644   0.13008
 Alpha virt. eigenvalues --    0.13906   0.14695   0.15993   0.16085   0.17398
 Alpha virt. eigenvalues --    0.17814   0.18613   0.18906   0.20310   0.21245

 Mulliken charges:
               1
     1  C   -0.391107
     2  C   -0.163419
     3  C    0.038718
     4  C   -0.400358
     5  C   -0.131360
     6  N   -0.290604
     7  C   -0.079214
     8  N   -0.513711
     9  H    0.110609
    10  H    0.113541
    11  H    0.117452
    12  H    0.090028
    13  H    0.091089
    14  H    0.076389
    15  H    0.108462
    16  H    0.115617
    17  H    0.117138
    18  H    0.093022
    19  H    0.069854
    20  H    0.218446
    21  H    0.080596
    22  H    0.076252
    23  H    0.227846
    24  H    0.224716
 Sum of Mulliken charges =  -0.00000

 Dipole moment (field-independent basis, Debye):
    X=              0.2622    Y=             -0.8738    Z=              0.1749  Tot=              0.9289
 Quadrupole moment (field-independent basis, Debye-Ang):
   XX=            -48.9148   YY=            -53.2277   ZZ=            -52.4207
   XY=             -3.8184   XZ=             -1.0973   YZ=              0.3699

  Exact polarizability: 103.429   0.432  75.878   0.313  -1.226  71.245
 Approx polarizability: 117.078   0.655 109.719  -0.292  -1.783 109.256

                      1                      2                      3
                      A                      A                      A
 Frequencies --     56.0168                68.3353                90.3896
 Red. masses --      3.0880                 1.6968                 2.0077
 Frc consts  --      0.0057                 0.0047                 0.0097
 IR Inten    --      0.2145                 1.8442                 1.2096

                      4                      5                      6
                      A                      A                      A
 Frequencies --    112.0989               153.9009               217.8820
 Red. masses --      3.3644                 2.2242                 1.0700
 Frc consts  --      0.0249                 0.0310                 0.0299
 IR Inten    --      0.2922                 5.1881                 0.0049

                      7                      8                      9
                      A                      A                      A
 Frequencies --    254.4440               257.5641               287.1537
 Red. masses --      2.1911                 1.2327                 1.3957
 Frc consts  --      0.0836                 0.0482                 0.0678
 IR Inten    --      8.2215                 0.8929                29.9845

                     10                     11                     12
                      A                      A                      A
 Frequencies --    308.2475               339.9948               416.8711
 Red. masses --      2.9772                 2.4926                 1.9509
 Frc consts  --      0.1667                 0.1698                 0.1998
 IR Inten    --      1.8871                 4.3743                 1.4192

                     13                     14                     15
                      A                      A                      A
 Frequencies --    495.0937               531.5078               773.3998
 Red. masses --      2.4233                 3.2144                 1.2979
 Frc consts  --      0.3500                 0.5350                 0.4574
 IR Inten    --      1.5809                 8.0446                 2.2344

                     16                     17                     18
                      A                      A                      A
 Frequencies --    807.6151               823.3010               864.4953
 Red. masses --      1.2755                 1.9112                 1.2415
 Frc consts  --      0.4902                 0.7633                 0.5467
 IR Inten    --     58.7364                 0.6759               147.8334

                     19                     20                     21
                      A                      A                      A
 Frequencies --    915.8339               922.1072               973.3590
 Red. masses --      1.3265                 1.9502                 1.3750
 Frc consts  --      0.6555                 0.9770                 0.7675
 IR Inten    --      8.3766                 2.9926                 2.8849

                     22                     23                     24
                      A                      A                      A
 Frequencies --    979.5806              1013.3771              1043.3944
 Red. masses --      1.3491                 1.6707                 2.6855
 Frc consts  --      0.7628                 1.0109                 1.7226
 IR Inten    --      5.6540                 7.1679                 0.7598

                     25                     26                     27
                      A                      A                      A
 Frequencies --   1078.1497              1099.1771              1155.1921
 Red. masses --      2.3470                 2.0159                 2.0107
 Frc consts  --      1.6074                 1.4350                 1.5809
 IR Inten    --      1.5508                 4.5990                23.1195

                     28                     29                     30
                      A                      A                      A
 Frequencies --   1159.8897              1182.0477              1200.4191
 Red. masses --      3.3091                 1.8297                 1.8329
 Frc consts  --      2.6229                 1.5063                 1.5561
 IR Inten    --     64.0737                10.2653                 9.5872

                     31                     32                     33
                      A                      A                      A
 Frequencies --   1221.6010              1274.5170              1289.8877
 Red. masses --      1.4308                 1.3616                 1.2481
 Frc consts  --      1.2580                 1.3031                 1.2235
 IR Inten    --     10.1547                10.7249                 2.5693

                     34                     35                     36
                      A                      A                      A
 Frequencies --   1308.7243              1338.8095              1372.8246
 Red. masses --      1.1731                 1.2658                 1.2882
 Frc consts  --      1.1838                 1.3368                 1.4304
 IR Inten    --      2.1268                 1.4969                 1.3800

                     37                     38                     39
                      A                      A                      A
 Frequencies --   1381.4493              1389.1824              1410.6666
 Red. masses --      1.4121                 1.3870                 1.2991
 Frc consts  --      1.5878                 1.5770                 1.5231
 IR Inten    --      1.7775                11.9925                 6.1003

                     40                     41                     42
                      A                      A                      A
 Frequencies --   1413.8234              1444.7310              1482.3137
 Red. masses --      1.2225                 1.3432                 1.0986
 Frc consts  --      1.4397                 1.6518                 1.4223
 IR Inten    --      4.9292                 3.7382                17.3134

                     43                     44                     45
                      A                      A                      A
 Frequencies --   1484.1502              1496.6644              1498.5821
 Red. masses --      1.2151                 1.0549                 1.0602
 Frc consts  --      1.5769                 1.3922                 1.4028
 IR Inten    --     54.8278                 1.9707                15.5182

                     46                     47                     48
                      A                      A                      A
 Frequencies --   1505.1316              1510.2514              1521.1012
 Red. masses --      1.0739                 1.0736                 1.0608
 Frc consts  --      1.4333                 1.4428                 1.4461
 IR Inten    --      9.5619                 2.2866                 9.2684

                     49                     50                     51
                      A                      A                      A
 Frequencies --   1539.7073              1641.8348              2893.9754
 Red. masses --      1.0869                 1.1005                 1.0714
 Frc consts  --      1.5182                 1.7478                 5.2867
 IR Inten    --      0.9849                30.2102                44.5966

                     52                     53                     54
                      A                      A                      A
 Frequencies --   2911.2747              2935.8108              3004.6773
 Red. masses --      1.0656                 1.0937                 1.0678
 Frc consts  --      5.3211                 5.5538                 5.6801
 IR Inten    --    121.8452                78.1166                 4.7089

                     55                     56                     57
                      A                      A                      A
 Frequencies --   3012.5481              3026.3711              3028.0587
 Red. masses --      1.0714                 1.0421                 1.0870
 Frc consts  --      5.7291                 5.6233                 5.8722
 IR Inten    --     36.8830                22.5233                16.2464

                     58                     59                     60
                      A                      A                      A
 Frequencies --   3032.6689              3044.2928              3094.4219
 Red. masses --      1.0381                 1.0977                 1.0969
 Frc consts  --      5.6255                 5.9937                 6.1886
 IR Inten    --     27.3063                51.4109                23.3138

                     61                     62                     63
                      A                      A                      A
 Frequencies --   3097.1729              3102.5724              3110.5077
 Red. masses --      1.1008                 1.1011                 1.0990
 Frc consts  --      6.2215                 6.2450                 6.2650
 IR Inten    --     46.0023                45.8898                34.2683

                     64                     65                     66
                      A                      A                      A
 Frequencies --   3495.1567              3523.8402              3581.6069
 Red. masses --      1.0492                 1.0728                 1.0924
 Frc consts  --      7.5516                 7.8488                 8.2562
 IR Inten    --      0.3646                 0.3933                 0.3115

 - Thermochemistry -
 -------------------
 Temperature   298.150 Kelvin.  Pressure   1.00000 Atm.
 Atom     1 has atomic number  6 and mass  12.00000

 Molecular mass:   116.13135 amu.
 Principal axes and moments of inertia in atomic units:
                           1         2         3
     Eigenvalues --   323.070772503.765512679.97982
           X            0.99998  -0.00569   0.00212
           Y            0.00569   0.99998   0.00019
           Z           -0.00212  -0.00018   1.00000
 This molecule is an asymmetric top.
 Rotational symmetry number  1.
 Rotational temperatures (Kelvin)      0.26810     0.03459     0.03232
 Rotational constants (GHZ):           5.58621     0.72081     0.67342
 Zero-point vibrational energy     586180.6 (Joules/Mol)
                                  140.10053 (Kcal/Mol)
 Warning -- explicit consideration of  14 degrees of freedom as
           vibrations may cause significant error
 Vibrational temperatures:     80.60    98.32   130.05   161.29   221.43
          (Kelvin)            313.48   366.09   370.58   413.15   443.50
                              489.18   599.78   712.33   764.72  1112.75
                             1161.98  1184.55  1243.82  1317.68  1326.71
                             1400.45  1409.40  1458.02  1501.21  1551.22
                             1581.47  1662.06  1668.82  1700.70  1727.14
                             1757.61  1833.75  1855.86  1882.96  1926.25
                             1975.19  1987.60  1998.72  2029.63  2034.18
                             2078.65  2132.72  2135.36  2153.37  2156.13
                             2165.55  2172.91  2188.53  2215.30  2362.23
                             4163.79  4188.67  4223.98  4323.06  4334.38
                             4354.27  4356.70  4363.33  4380.06  4452.18
                             4456.14  4463.91  4475.33  5028.75  5070.02
                             5153.13

 Zero-point correction=                           0.223264 (Hartree/Particle)
 Thermal correction to Energy=                    0.234065
 Thermal correction to Enthalpy=                  0.235009
 Thermal correction to Gibbs Free Energy=         0.186881
 Sum of electronic and zero-point Energies=           -347.575733
 Sum of electronic and thermal Energies=              -347.564932
 Sum of electronic and thermal Enthalpies=            -347.563988
 Sum of electronic and thermal Free Energies=         -347.612116

                     E (Thermal)             CV                S
                      KCal/Mol        Cal/Mol-Kelvin    Cal/Mol-Kelvin
 Total                  146.878             38.314            101.294
 Electronic               0.000              0.000              0.000
 Translational            0.889              2.981             40.164
 Rotational               0.889              2.981             29.162
 Vibrational            145.101             32.352             31.968
 Vibration     1          0.596              1.975              4.593
 Vibration     2          0.598              1.969              4.201
 Vibration     3          0.602              1.956              3.652
 Vibration     4          0.607              1.939              3.232
 Vibration     5          0.619              1.898              2.623
 Vibration     6          0.646              1.814              1.977
 Vibration     7          0.665              1.755              1.700
 Vibration     8          0.667              1.750              1.678
 Vibration     9          0.684              1.698              1.491
 Vibration    10          0.698              1.658              1.372
 Vibration    11          0.720              1.596              1.212
 Vibration    12          0.780              1.434              0.903
 Vibration    13          0.851              1.261              0.671
 Vibration    14          0.886              1.180              0.584

                           ! Non-Optimized Parameters !
 Normal termination of Gaussian 16 at Tue Jun  1 06:15:47 2021.
