 Gaussian 16, Revision A.03,
 Gaussian 16:  ES64L-G16RevA.03 25-Dec-2016

 -----------------------------
 # opt freq b3lyp/6-31g(2df,p)
 -----------------------------

 -------------------
 Title Card Required
 -------------------
 Symbolic Z-matrix:
 Charge =  0 Multiplicity = 1

 SCF Done:  E(RB3LYP) =  -308.446249664     A.U. after   12 cycles
 SCF Done:  E(RB3LYP) =  -308.449290430     A.U. after   11 cycles
 SCF Done:  E(RB3LYP) =  -308.449852234     A.U. after   10 cycles
 SCF Done:  E(RB3LYP) =  -308.449949836     A.U. after    9 cycles
 SCF Done:  E(RB3LYP) =  -308.450068500     A.U. after    9 cycles
 SCF Done:  E(RB3LYP) =  -308.450079436     A.U. after    9 cycles
 SCF Done:  E(RB3LYP) =  -308.450084388     A.U. after    8 cycles
 SCF Done:  E(RB3LYP) =  -308.450085053     A.U. after    6 cycles
 SCF Done:  E(RB3LYP) =  -308.450085135     A.U. after    6 cycles
 Optimization completed.
    -- Stationary point found.
 Normal termination of Gaussian 16 at Tue Jun  1 03:48:32 2021.

 ----------------------------------------------------------------------
 #N Geom=AllCheck Guess=TCheck SCRF=Check GenChk RB3LYP/6-31G(2df,p) Fr
 eq
 ----------------------------------------------------------------------

 Structure from the checkpoint file:  "CCCpCpNpCpN.chk"
 -------------------
 Title Card Required
 -------------------
 Charge =  0 Multiplicity = 1

                         Standard orientation:
 ---------------------------------------------------------------------
 Center     Atomic      Atomic             Coordinates (Angstroms)
 Number     Number       Type             X           Y           Z
 ---------------------------------------------------------------------
      1          6           0        2.700166   -0.344383    0.216439
      2          6           0        1.286125   -0.709376   -0.250601
      3          6           0        0.185448    0.262272    0.219023
      4          6           0        0.497311    1.700647   -0.210835
      5          7           0       -1.136635   -0.140567   -0.303133
      6          6           0       -1.497094   -1.526289   -0.026025
      7          7           0       -2.204662    0.675228    0.186408
      8          1           0        3.401841   -1.145284   -0.036130
      9          1           0        2.736881   -0.205181    1.303035
     10          1           0        3.070748    0.572363   -0.250197
     11          1           0        1.060391   -1.713024    0.119642
     12          1           0        1.254697   -0.765260   -1.346273
     13          1           0        0.162176    0.230456    1.330981
     14          1           0        0.545788    1.769039   -1.303114
     15          1           0        1.453066    2.031600    0.201084
     16          1           0       -0.261404    2.402839    0.142121
     17          1           0       -0.861594   -2.212842   -0.588882
     18          1           0       -2.530351   -1.670572   -0.342714
     19          1           0       -1.427251   -1.789079    1.047358
     20          1           0       -2.191526    1.551535   -0.323786
     21          1           0       -2.056123    0.903562    1.175944
 ---------------------------------------------------------------------

 SCF Done:  E(RB3LYP) =  -308.450085135     A.U. after    1 cycles

 The electronic state is 1-A.
 Alpha  occ. eigenvalues --  -14.33626 -14.32749 -10.20852 -10.18803 -10.17874
 Alpha  occ. eigenvalues --  -10.17478 -10.17169  -0.96027  -0.80807  -0.76095
 Alpha  occ. eigenvalues --   -0.72271  -0.65102  -0.62150  -0.55720  -0.49489
 Alpha  occ. eigenvalues --   -0.48106  -0.46103  -0.44790  -0.41309  -0.40602
 Alpha  occ. eigenvalues --   -0.38853  -0.38177  -0.36419  -0.36079  -0.34894
 Alpha  occ. eigenvalues --   -0.32668  -0.31908  -0.24479  -0.21461
 Alpha virt. eigenvalues --    0.07521   0.10416   0.11537   0.12558   0.13847
 Alpha virt. eigenvalues --    0.15770   0.16047   0.16475   0.17193   0.17334
 Alpha virt. eigenvalues --    0.17936   0.18749   0.20022   0.20646   0.22227

 Mulliken charges:
               1
     1  C   -0.393395
     2  C   -0.185168
     3  C    0.104879
     4  C   -0.398738
     5  N   -0.075788
     6  C   -0.291803
     7  N   -0.469470
     8  H    0.113552
     9  H    0.114402
    10  H    0.120457
    11  H    0.101896
    12  H    0.104269
    13  H    0.039999
    14  H    0.119519
    15  H    0.118678
    16  H    0.099137
    17  H    0.117095
    18  H    0.129444
    19  H    0.081708
    20  H    0.242060
    21  H    0.207267
 Sum of Mulliken charges =  -0.00000

 Dipole moment (field-independent basis, Debye):
    X=              1.1027    Y=              0.5299    Z=              0.7264  Tot=              1.4228
 Quadrupole moment (field-independent basis, Debye-Ang):
   XX=            -49.9901   YY=            -43.4282   ZZ=            -46.2388
   XY=             -1.5276   XZ=             -1.2467   YZ=              0.3803

  Exact polarizability:  80.285  -1.028  73.912  -0.879   0.478  61.910
 Approx polarizability: 100.492  -2.473 100.244  -0.752   0.963  97.303

                      1                      2                      3
                      A                      A                      A
 Frequencies --     73.3959                88.1178               195.5704
 Red. masses --      2.8322                 1.8381                 1.0904
 Frc consts  --      0.0090                 0.0084                 0.0246
 IR Inten    --      0.3727                 0.1066                 0.7537

                      4                      5                      6
                      A                      A                      A
 Frequencies --    212.6479               225.8631               275.8496
 Red. masses --      2.0487                 1.2206                 1.4115
 Frc consts  --      0.0546                 0.0367                 0.0633
 IR Inten    --      0.6685                 0.0989                 3.7527

                      7                      8                      9
                      A                      A                      A
 Frequencies --    313.2116               345.8787               368.2635
 Red. masses --      1.3503                 1.8684                 1.9386
 Frc consts  --      0.0780                 0.1317                 0.1549
 IR Inten    --     20.3948                 3.1455                 3.9791

                     10                     11                     12
                      A                      A                      A
 Frequencies --    410.5904               452.0516               482.4312
 Red. masses --      2.2962                 2.8461                 2.2770
 Frc consts  --      0.2281                 0.3427                 0.3122
 IR Inten    --      3.0835                 0.2947                 3.1125

                     13                     14                     15
                      A                      A                      A
 Frequencies --    534.3169               763.3965               806.8505
 Red. masses --      2.3817                 2.0105                 1.3589
 Frc consts  --      0.4006                 0.6903                 0.5212
 IR Inten    --     12.4169                 6.0135                 9.7869

                     16                     17                     18
                      A                      A                      A
 Frequencies --    859.4485               921.9935               961.5783
 Red. masses --      2.3296                 1.9711                 1.3744
 Frc consts  --      1.0138                 0.9872                 0.7488
 IR Inten    --      4.2068                68.3247                11.5527

                     19                     20                     21
                      A                      A                      A
 Frequencies --    983.9437              1031.1530              1043.2925
 Red. masses --      1.4982                 1.7609                 2.4789
 Frc consts  --      0.8546                 1.1031                 1.5898
 IR Inten    --     18.1770                31.4809                15.1602

                     22                     23                     24
                      A                      A                      A
 Frequencies --   1107.3800              1130.3306              1149.4613
 Red. masses --      1.5259                 1.8898                 1.4705
 Frc consts  --      1.1025                 1.4226                 1.1447
 IR Inten    --      6.9584                13.7937                 5.0232

                     25                     26                     27
                      A                      A                      A
 Frequencies --   1189.7428              1224.6755              1242.5481
 Red. masses --      1.9422                 2.8118                 2.1950
 Frc consts  --      1.6198                 2.4847                 1.9966
 IR Inten    --      3.4701                 4.4733                 6.0817

                     28                     29                     30
                      A                      A                      A
 Frequencies --   1294.1489              1310.7691              1344.5458
 Red. masses --      1.3224                 1.2159                 1.2581
 Frc consts  --      1.3049                 1.2308                 1.3400
 IR Inten    --      7.8669                11.3420                10.5918

                     31                     32                     33
                      A                      A                      A
 Frequencies --   1372.3641              1384.5238              1409.4967
 Red. masses --      1.3808                 1.4032                 1.3430
 Frc consts  --      1.5322                 1.5848                 1.5720
 IR Inten    --      3.7705                11.1342                19.3487

                     34                     35                     36
                      A                      A                      A
 Frequencies --   1412.9554              1448.4345              1485.0057
 Red. masses --      1.2230                 1.1750                 1.0621
 Frc consts  --      1.4386                 1.4524                 1.3799
 IR Inten    --      1.0420                 1.6438                 3.1405

                     37                     38                     39
                      A                      A                      A
 Frequencies --   1490.5206              1497.4538              1500.8317
 Red. masses --      1.0526                 1.0545                 1.0442
 Frc consts  --      1.3778                 1.3931                 1.3858
 IR Inten    --      4.2622                13.4319                 4.8800

                     40                     41                     42
                      A                      A                      A
 Frequencies --   1501.9428              1510.3331              1518.1012
 Red. masses --      1.0442                 1.0735                 1.0451
 Frc consts  --      1.3878                 1.4428                 1.4191
 IR Inten    --      3.9501                 2.1708                 2.3490

                     43                     44                     45
                      A                      A                      A
 Frequencies --   1667.1820              2852.0679              2922.3363
 Red. masses --      1.0827                 1.0793                 1.0620
 Frc consts  --      1.7731                 5.1727                 5.3434
 IR Inten    --     12.6996                61.8601                82.7054

                     46                     47                     48
                      A                      A                      A
 Frequencies --   3030.5456              3034.3745              3043.9829
 Red. masses --      1.0612                 1.0398                 1.0389
 Frc consts  --      5.7426                 5.6409                 5.6716
 IR Inten    --     10.4706                34.2581                16.7381

                     49                     50                     51
                      A                      A                      A
 Frequencies --   3079.6005              3095.3984              3098.3039
 Red. masses --      1.0932                 1.0742                 1.0997
 Frc consts  --      6.1084                 6.0639                 6.2199
 IR Inten    --      7.5966                38.8773                24.2048

                     52                     53                     54
                      A                      A                      A
 Frequencies --   3113.4921              3114.9093              3128.1529
 Red. masses --      1.1003                 1.0990                 1.0988
 Frc consts  --      6.2845                 6.2825                 6.3351
 IR Inten    --     48.9511                25.7843                22.2737

                     55                     56                     57
                      A                      A                      A
 Frequencies --   3144.8670              3347.5681              3552.1836
 Red. masses --      1.1017                 1.0583                 1.0812
 Frc consts  --      6.4199                 6.9876                 8.0383
 IR Inten    --     18.3318                23.1206                 0.4277

 - Thermochemistry -
 -------------------
 Temperature   298.150 Kelvin.  Pressure   1.00000 Atm.
 Atom     1 has atomic number  6 and mass  12.00000

 Molecular mass:   102.11570 amu.
 Principal axes and moments of inertia in atomic units:
                           1         2         3
     Eigenvalues --   445.270391036.858721379.01416
           X            0.99996   0.00766  -0.00346
           Y           -0.00767   0.99997  -0.00244
           Z            0.00344   0.00247   0.99999
 This molecule is an asymmetric top.
 Rotational symmetry number  1.
 Warning -- assumption of classical behavior for rotation
           may cause significant error
 Rotational temperatures (Kelvin)      0.19452     0.08353     0.06281
 Rotational constants (GHZ):           4.05314     1.74059     1.30872
 Zero-point vibrational energy     509013.3 (Joules/Mol)
                                  121.65709 (Kcal/Mol)
 Warning -- explicit consideration of  13 degrees of freedom as
           vibrations may cause significant error
 Vibrational temperatures:    105.60   126.78   281.38   305.95   324.97
          (Kelvin)            396.89   450.64   497.64   529.85   590.75
                              650.40   694.11   768.76  1098.36  1160.88
                             1236.55  1326.54  1383.50  1415.68  1483.60
                             1501.07  1593.27  1626.29  1653.82  1711.77
                             1762.03  1787.75  1861.99  1885.90  1934.50
                             1974.53  1992.02  2027.95  2032.93  2083.97
                             2136.59  2144.53  2154.50  2159.36  2160.96
                             2173.03  2184.21  2398.70  4103.49  4204.59
                             4360.28  4365.79  4379.61  4430.86  4453.59
                             4457.77  4479.62  4481.66  4500.71  4524.76
                             4816.40  5110.80

 Zero-point correction=                           0.193873 (Hartree/Particle)
 Thermal correction to Energy=                    0.203084
 Thermal correction to Enthalpy=                  0.204028
 Thermal correction to Gibbs Free Energy=         0.160600
 Sum of electronic and zero-point Energies=           -308.256212
 Sum of electronic and thermal Energies=              -308.247001
 Sum of electronic and thermal Enthalpies=            -308.246057
 Sum of electronic and thermal Free Energies=         -308.289485

                     E (Thermal)             CV                S
                      KCal/Mol        Cal/Mol-Kelvin    Cal/Mol-Kelvin
 Total                  127.437             33.841             91.403
 Electronic               0.000              0.000              0.000
 Translational            0.889              2.981             39.780
 Rotational               0.889              2.981             27.945
 Vibrational            125.660             27.880             23.678
 Vibration     1          0.599              1.967              4.060
 Vibration     2          0.601              1.958              3.701
 Vibration     3          0.636              1.846              2.174
 Vibration     4          0.644              1.822              2.021
 Vibration     5          0.650              1.802              1.912
 Vibration     6          0.677              1.718              1.559
 Vibration     7          0.701              1.648              1.345
 Vibration     8          0.724              1.584              1.185
 Vibration     9          0.741              1.537              1.087
 Vibration    10          0.775              1.447              0.925
 Vibration    11          0.811              1.356              0.790
 Vibration    12          0.839              1.289              0.704
 Vibration    13          0.889              1.174              0.578

 Optimization completed.
    -- Stationary point found.
 Normal termination of Gaussian 16 at Tue Jun  1 04:10:30 2021.
