 Gaussian 16, Revision A.03,
 Gaussian 16:  ES64L-G16RevA.03 25-Dec-2016

 -----------------------------
 # opt freq b3lyp/6-31g(2df,p)
 -----------------------------

 -------------------
 Title Card Required
 -------------------
 Symbolic Z-matrix:
 Charge =  0 Multiplicity = 1

 SCF Done:  E(RB3LYP) =  -441.238829501     A.U. after   13 cycles
 SCF Done:  E(RB3LYP) =  -441.245754529     A.U. after   11 cycles
 SCF Done:  E(RB3LYP) =  -441.247039849     A.U. after   11 cycles
 SCF Done:  E(RB3LYP) =  -441.247596943     A.U. after   11 cycles
 SCF Done:  E(RB3LYP) =  -441.247659033     A.U. after   11 cycles
 SCF Done:  E(RB3LYP) =  -441.247766990     A.U. after    9 cycles
 SCF Done:  E(RB3LYP) =  -441.247778165     A.U. after    9 cycles
 SCF Done:  E(RB3LYP) =  -441.247780352     A.U. after    8 cycles
 SCF Done:  E(RB3LYP) =  -441.247780682     A.U. after    7 cycles
 SCF Done:  E(RB3LYP) =  -441.247780724     A.U. after    6 cycles
 Optimization completed.
    -- Stationary point found.
 Normal termination of Gaussian 16 at Mon May 31 19:24:56 2021.

 ----------------------------------------------------------------------
 #N Geom=AllCheck Guess=TCheck SCRF=Check GenChk RB3LYP/6-31G(2df,p) Fr
 eq
 ----------------------------------------------------------------------

 Structure from the checkpoint file:  "CCCpdNpCNCCCN.chk"
 -------------------
 Title Card Required
 -------------------
 Charge =  0 Multiplicity = 1

                         Standard orientation:
 ---------------------------------------------------------------------
 Center     Atomic      Atomic             Coordinates (Angstroms)
 Number     Number       Type             X           Y           Z
 ---------------------------------------------------------------------
      1          6           0        4.821948    0.189234   -0.110921
      2          6           0        3.557513   -0.635687    0.123886
      3          6           0        2.247473    0.123215    0.010358
      4          7           0        2.107444    1.377816   -0.138435
      5          6           0        1.002963   -0.743637    0.051119
      6          7           0       -0.193691    0.014562    0.335895
      7          6           0       -1.422330   -0.609223   -0.126217
      8          6           0       -2.631901    0.276810    0.167047
      9          6           0       -3.957014   -0.357504   -0.253352
     10          7           0       -5.071253    0.560336    0.008132
     11          1           0        5.711018   -0.441296   -0.024336
     12          1           0        4.919406    0.995000    0.624112
     13          1           0        4.828180    0.639098   -1.109038
     14          1           0        3.588720   -1.095857    1.121200
     15          1           0        3.521234   -1.481236   -0.576527
     16          1           0        3.007887    1.857270   -0.181841
     17          1           0        1.141059   -1.540610    0.797680
     18          1           0        0.962735   -1.269094   -0.927951
     19          1           0       -0.077356    0.946364   -0.051549
     20          1           0       -1.538084   -1.571053    0.394404
     21          1           0       -1.396636   -0.852371   -1.208491
     22          1           0       -2.525351    1.239204   -0.348861
     23          1           0       -2.649870    0.499441    1.241762
     24          1           0       -4.060859   -1.338545    0.244898
     25          1           0       -3.939353   -0.559071   -1.332070
     26          1           0       -5.156632    0.710823    1.009965
     27          1           0       -5.945512    0.133694   -0.284028
 ---------------------------------------------------------------------

 SCF Done:  E(RB3LYP) =  -441.247780724     A.U. after    1 cycles

 The electronic state is 1-A.
 Alpha  occ. eigenvalues --  -14.30647 -14.29978 -14.29494 -10.22992 -10.20407
 Alpha  occ. eigenvalues --  -10.19753 -10.19701 -10.19436 -10.18763 -10.16765
 Alpha  occ. eigenvalues --   -0.91551  -0.87873  -0.86814  -0.77346  -0.75312
 Alpha  occ. eigenvalues --   -0.69964  -0.64414  -0.61073  -0.58057  -0.54190
 Alpha  occ. eigenvalues --   -0.48332  -0.48064  -0.46936  -0.45767  -0.45635
 Alpha  occ. eigenvalues --   -0.43814  -0.42880  -0.40863  -0.38757  -0.38009
 Alpha  occ. eigenvalues --   -0.37275  -0.36102  -0.35576  -0.33620  -0.32817
 Alpha  occ. eigenvalues --   -0.32370  -0.29616  -0.25725  -0.22857  -0.20810
 Alpha virt. eigenvalues --    0.01042   0.07888   0.08904   0.10553   0.10884
 Alpha virt. eigenvalues --    0.13211   0.13402   0.13931   0.14531   0.15125
 Alpha virt. eigenvalues --    0.16258   0.17524   0.18167   0.18496   0.19420

 Mulliken charges:
               1
     1  C   -0.408643
     2  C   -0.243696
     3  C    0.305834
     4  N   -0.469949
     5  C   -0.184172
     6  N   -0.300479
     7  C   -0.118799
     8  C   -0.173036
     9  C   -0.144197
    10  N   -0.508887
    11  H    0.120948
    12  H    0.127854
    13  H    0.127951
    14  H    0.124568
    15  H    0.117897
    16  H    0.217691
    17  H    0.101980
    18  H    0.089464
    19  H    0.233217
    20  H    0.091102
    21  H    0.069145
    22  H    0.106791
    23  H    0.098817
    24  H    0.074798
    25  H    0.100170
    26  H    0.221279
    27  H    0.222353
 Sum of Mulliken charges =  -0.00000

 Dipole moment (field-independent basis, Debye):
    X=              1.5299    Y=             -2.2829    Z=              0.0401  Tot=              2.7484
 Quadrupole moment (field-independent basis, Debye-Ang):
   XX=            -49.3305   YY=            -65.9006   ZZ=            -63.7316
   XY=              3.6301   XZ=             -2.7477   YZ=              0.5525

  Exact polarizability: 129.804   0.010  94.007   0.238   0.276  77.563
 Approx polarizability: 138.911  -1.575 151.013   0.947  -0.578 121.402

                      1                      2                      3
                      A                      A                      A
 Frequencies --     33.1654                55.7087                59.2290
 Red. masses --      3.9389                 3.6880                 1.8781
 Frc consts  --      0.0026                 0.0067                 0.0039
 IR Inten    --      1.0957                 1.1632                 1.1274

                      4                      5                      6
                      A                      A                      A
 Frequencies --     84.9631               104.3608               138.7258
 Red. masses --      2.4071                 2.4530                 2.0841
 Frc consts  --      0.0102                 0.0157                 0.0236
 IR Inten    --      1.7814                 2.6757                 4.8836

                      7                      8                      9
                      A                      A                      A
 Frequencies --    157.8763               194.3710               245.4962
 Red. masses --      2.4114                 3.0485                 1.1528
 Frc consts  --      0.0354                 0.0679                 0.0409
 IR Inten    --      0.4730                 0.2705                 1.6112

                     10                     11                     12
                      A                      A                      A
 Frequencies --    248.6527               263.8613               297.6568
 Red. masses --      2.3320                 1.5231                 2.6345
 Frc consts  --      0.0850                 0.0625                 0.1375
 IR Inten    --      9.9821                18.1026                17.1922

                     13                     14                     15
                      A                      A                      A
 Frequencies --    377.7232               453.4789               463.8792
 Red. masses --      3.6487                 3.7919                 2.2487
 Frc consts  --      0.3067                 0.4594                 0.2851
 IR Inten    --      3.2616                 4.0633                 3.1501

                     16                     17                     18
                      A                      A                      A
 Frequencies --    507.4544               622.7087               734.5255
 Red. masses --      3.0132                 2.7754                 1.2062
 Frc consts  --      0.4572                 0.6341                 0.3834
 IR Inten    --      4.7377                11.7430                 1.0550

                     19                     20                     21
                      A                      A                      A
 Frequencies --    768.4988               781.4309               844.8834
 Red. masses --      1.0783                 1.3074                 3.0189
 Frc consts  --      0.3752                 0.4704                 1.2697
 IR Inten    --      2.4010                55.8856                 7.5035

                     22                     23                     24
                      A                      A                      A
 Frequencies --    850.0054               881.2853               906.2390
 Red. masses --      1.2144                 1.2430                 1.3111
 Frc consts  --      0.5170                 0.5688                 0.6344
 IR Inten    --     76.9189                26.1218                54.4380

                     25                     26                     27
                      A                      A                      A
 Frequencies --    974.1695               987.3395              1019.2584
 Red. masses --      2.5235                 2.3743                 1.4480
 Frc consts  --      1.4110                 1.3637                 0.8863
 IR Inten    --     20.7623                11.9301                17.2479

                     28                     29                     30
                      A                      A                      A
 Frequencies --   1035.6940              1055.9134              1074.6838
 Red. masses --      1.6871                 2.5428                 2.1266
 Frc consts  --      1.0662                 1.6704                 1.4471
 IR Inten    --     12.9128                 4.9292                 9.7222

                     31                     32                     33
                      A                      A                      A
 Frequencies --   1099.1802              1104.8481              1113.7638
 Red. masses --      2.0212                 2.0703                 1.7468
 Frc consts  --      1.4388                 1.4890                 1.2767
 IR Inten    --     17.3692                11.2379                 2.4808

                     34                     35                     36
                      A                      A                      A
 Frequencies --   1163.8310              1181.5066              1192.0679
 Red. masses --      2.0523                 2.4803                 1.5219
 Frc consts  --      1.6379                 2.0400                 1.2742
 IR Inten    --     17.2004                48.7675                11.8105

                     37                     38                     39
                      A                      A                      A
 Frequencies --   1240.6110              1261.5988              1289.7901
 Red. masses --      1.3291                 1.2546                 1.4031
 Frc consts  --      1.2052                 1.1765                 1.3752
 IR Inten    --      3.7494                25.4195                26.6791

                     40                     41                     42
                      A                      A                      A
 Frequencies --   1295.5507              1305.5218              1315.2008
 Red. masses --      1.1716                 1.2419                 1.1002
 Frc consts  --      1.1586                 1.2471                 1.1212
 IR Inten    --      7.2635                 3.7209                 1.1229

                     43                     44                     45
                      A                      A                      A
 Frequencies --   1337.2880              1360.7963              1402.1797
 Red. masses --      1.2403                 1.3977                 1.5492
 Frc consts  --      1.3069                 1.5249                 1.7946
 IR Inten    --      3.6109                 0.3909                 6.0052

                     46                     47                     48
                      A                      A                      A
 Frequencies --   1411.0680              1431.8815              1434.7228
 Red. masses --      1.3043                 1.5755                 1.6400
 Frc consts  --      1.5301                 1.9032                 1.9889
 IR Inten    --      8.0512                 3.6704                61.4042

                     49                     50                     51
                      A                      A                      A
 Frequencies --   1462.7822              1489.2634              1493.0541
 Red. masses --      1.0849                 1.1576                 1.0932
 Frc consts  --      1.3677                 1.5127                 1.4358
 IR Inten    --      6.0131                 9.3764                 7.3820

                     52                     53                     54
                      A                      A                      A
 Frequencies --   1500.3711              1503.4843              1507.9728
 Red. masses --      1.0397                 1.1474                 1.0574
 Frc consts  --      1.3790                 1.5282                 1.4167
 IR Inten    --      6.2730                78.4553                 0.7389

                     55                     56                     57
                      A                      A                      A
 Frequencies --   1515.4113              1528.1924              1658.9427
 Red. masses --      1.0929                 1.0952                 1.0886
 Frc consts  --      1.4788                 1.5069                 1.7651
 IR Inten    --      0.6319                 0.1264                21.2382

                     58                     59                     60
                      A                      A                      A
 Frequencies --   1732.8786              2866.1575              2887.3033
 Red. masses --      8.2981                 1.0744                 1.0732
 Frc consts  --     14.6813                 5.2003                 5.2715
 IR Inten    --     53.5217                54.4561                90.6131

                     61                     62                     63
                      A                      A                      A
 Frequencies --   2931.0145              2994.1861              3005.4597
 Red. masses --      1.0729                 1.0806                 1.0832
 Frc consts  --      5.4308                 5.7080                 5.7648
 IR Inten    --     72.1642                28.6310                34.7512

                     64                     65                     66
                      A                      A                      A
 Frequencies --   3016.5438              3022.6276              3035.1553
 Red. masses --      1.0611                 1.0620                 1.0831
 Frc consts  --      5.6887                 5.7165                 5.8789
 IR Inten    --     25.1202                18.1723                33.0349

                     67                     68                     69
                      A                      A                      A
 Frequencies --   3037.8746              3041.5023              3068.8760
 Red. masses --      1.0360                 1.0991                 1.1038
 Frc consts  --      5.6334                 5.9904                 6.1248
 IR Inten    --     18.8142                10.2138                58.0323

                     70                     71                     72
                      A                      A                      A
 Frequencies --   3104.3131              3113.3819              3461.7847
 Red. masses --      1.1018                 1.1005                 1.0739
 Frc consts  --      6.2560                 6.2852                 7.5824
 IR Inten    --     26.2899                22.2833                 1.7756

                     73                     74                     75
                      A                      A                      A
 Frequencies --   3482.4817              3515.7201              3560.1553
 Red. masses --      1.0495                 1.0733                 1.0917
 Frc consts  --      7.4992                 7.8165                 8.1526
 IR Inten    --      1.4670                23.9199                 0.2765

 - Thermochemistry -
 -------------------
 Temperature   298.150 Kelvin.  Pressure   1.00000 Atm.
 Atom     1 has atomic number  6 and mass  12.00000

 Molecular mass:   143.14225 amu.
 Principal axes and moments of inertia in atomic units:
                           1         2         3
     Eigenvalues --   305.523675236.557605438.25476
           X            1.00000   0.00086  -0.00106
           Y           -0.00084   0.99990   0.01438
           Z            0.00107  -0.01437   0.99990
 This molecule is an asymmetric top.
 Rotational symmetry number  1.
 Rotational temperatures (Kelvin)      0.28349     0.01654     0.01593
 Rotational constants (GHZ):           5.90704     0.34464     0.33186
 Zero-point vibrational energy     644198.2 (Joules/Mol)
                                  153.96708 (Kcal/Mol)
 Warning -- explicit consideration of  16 degrees of freedom as
           vibrations may cause significant error
 Vibrational temperatures:     47.72    80.15    85.22   122.24   150.15
          (Kelvin)            199.60   227.15   279.66   353.21   357.76
                              379.64   428.26   543.46   652.45   667.42
                              730.11   895.94  1056.82  1105.70  1124.30
                             1215.60  1222.97  1267.97  1303.88  1401.61
                             1420.56  1466.49  1490.13  1519.22  1546.23
                             1581.48  1589.63  1602.46  1674.49  1699.92
                             1715.12  1784.96  1815.16  1855.72  1864.01
                             1878.35  1892.28  1924.06  1957.88  2017.42
                             2030.21  2060.16  2064.25  2104.62  2142.72
                             2148.17  2158.70  2163.18  2169.64  2180.34
                             2198.73  2386.85  2493.23  4123.76  4154.19
                             4217.08  4307.97  4324.19  4340.13  4348.89
                             4366.91  4370.82  4376.04  4415.43  4466.41
                             4479.46  4980.74  5010.51  5058.34  5122.27

 Zero-point correction=                           0.245362 (Hartree/Particle)
 Thermal correction to Energy=                    0.258145
 Thermal correction to Enthalpy=                  0.259089
 Thermal correction to Gibbs Free Energy=         0.205133
 Sum of electronic and zero-point Energies=           -441.002419
 Sum of electronic and thermal Energies=              -440.989635
 Sum of electronic and thermal Enthalpies=            -440.988691
 Sum of electronic and thermal Free Energies=         -441.042648

                     E (Thermal)             CV                S
                      KCal/Mol        Cal/Mol-Kelvin    Cal/Mol-Kelvin
 Total                  161.989             45.007            113.561
 Electronic               0.000              0.000              0.000
 Translational            0.889              2.981             40.787
 Rotational               0.889              2.981             30.543
 Vibrational            160.211             39.045             42.231
 Vibration     1          0.594              1.983              5.630
 Vibration     2          0.596              1.975              4.604
 Vibration     3          0.597              1.974              4.483
 Vibration     4          0.601              1.960              3.773
 Vibration     5          0.605              1.946              3.371
 Vibration     6          0.614              1.915              2.821
 Vibration     7          0.621              1.894              2.575
 Vibration     8          0.635              1.848              2.186
 Vibration     9          0.660              1.770              1.763
 Vibration    10          0.662              1.765              1.740
 Vibration    11          0.670              1.739              1.636
 Vibration    12          0.691              1.678              1.430
 Vibration    13          0.748              1.518              1.048
 Vibration    14          0.812              1.353              0.785
 Vibration    15          0.821              1.330              0.755
 Vibration    16          0.863              1.233              0.640

 Optimization completed.
    -- Stationary point found.
 Normal termination of Gaussian 16 at Mon May 31 20:05:20 2021.
