 Gaussian 16, Revision A.03,
 Gaussian 16:  ES64L-G16RevA.03 25-Dec-2016

 -----------------------------
 # opt freq b3lyp/6-31g(2df,p)
 -----------------------------

 -------------------
 Title Card Required
 -------------------
 Symbolic Z-matrix:
 Charge =  0 Multiplicity = 1

 SCF Done:  E(RB3LYP) =  -346.581419924     A.U. after   13 cycles
 SCF Done:  E(RB3LYP) =  -346.585448680     A.U. after   11 cycles
 SCF Done:  E(RB3LYP) =  -346.586194213     A.U. after   11 cycles
 SCF Done:  E(RB3LYP) =  -346.586381383     A.U. after   11 cycles
 SCF Done:  E(RB3LYP) =  -346.586594329     A.U. after   11 cycles
 SCF Done:  E(RB3LYP) =  -346.586710233     A.U. after   11 cycles
 SCF Done:  E(RB3LYP) =  -346.586796844     A.U. after   10 cycles
 SCF Done:  E(RB3LYP) =  -346.586838335     A.U. after    9 cycles
 SCF Done:  E(RB3LYP) =  -346.586843430     A.U. after   10 cycles
 SCF Done:  E(RB3LYP) =  -346.586842083     A.U. after   10 cycles
 SCF Done:  E(RB3LYP) =  -346.586846310     A.U. after    9 cycles
 SCF Done:  E(RB3LYP) =  -346.586845978     A.U. after    8 cycles
 SCF Done:  E(RB3LYP) =  -346.586846526     A.U. after    8 cycles
 SCF Done:  E(RB3LYP) =  -346.586846565     A.U. after    6 cycles
 Optimization completed.
    -- Stationary point found.
 Normal termination of Gaussian 16 at Mon May 31 15:46:51 2021.

 ----------------------------------------------------------------------
 #N Geom=AllCheck Guess=TCheck SCRF=Check GenChk RB3LYP/6-31G(2df,p) Fr
 eq
 ----------------------------------------------------------------------

 Structure from the checkpoint file:  "CCCpdNpCpCpCN.chk"
 -------------------
 Title Card Required
 -------------------
 Charge =  0 Multiplicity = 1

                         Standard orientation:
 ---------------------------------------------------------------------
 Center     Atomic      Atomic             Coordinates (Angstroms)
 Number     Number       Type             X           Y           Z
 ---------------------------------------------------------------------
      1          6           0        3.244295   -0.020448    0.255557
      2          6           0        1.838290    0.442035    0.633534
      3          6           0        0.694337   -0.246642   -0.095537
      4          7           0        0.804106   -1.226623   -0.900370
      5          6           0       -0.688217    0.329495    0.173825
      6          6           0       -0.971057    1.499723   -0.789143
      7          6           0       -1.784983   -0.744047    0.083059
      8          7           0       -3.080950   -0.192120    0.497524
      9          1           0        3.995834    0.536067    0.822450
     10          1           0        3.445893    0.137840   -0.808967
     11          1           0        3.391272   -1.083826    0.472244
     12          1           0        1.742101    1.524365    0.475574
     13          1           0        1.673631    0.300523    1.711256
     14          1           0        1.781266   -1.501567   -1.020397
     15          1           0       -0.690643    0.731538    1.198448
     16          1           0       -0.904580    1.155963   -1.826502
     17          1           0       -0.259543    2.321074   -0.657093
     18          1           0       -1.980097    1.878334   -0.613423
     19          1           0       -1.468914   -1.624852    0.663758
     20          1           0       -1.866785   -1.077530   -0.955238
     21          1           0       -3.098119   -0.072742    1.506787
     22          1           0       -3.819401   -0.854691    0.283243
 ---------------------------------------------------------------------

 SCF Done:  E(RB3LYP) =  -346.586846565     A.U. after    1 cycles

 The electronic state is 1-A.
 Alpha  occ. eigenvalues --  -14.30168 -14.29878 -10.22136 -10.19230 -10.19203
 Alpha  occ. eigenvalues --  -10.18394 -10.18238 -10.16504  -0.89861  -0.86902
 Alpha  occ. eigenvalues --   -0.77113  -0.76075  -0.66053  -0.65333  -0.58405
 Alpha  occ. eigenvalues --   -0.52955  -0.47536  -0.47105  -0.45728  -0.45005
 Alpha  occ. eigenvalues --   -0.42627  -0.41101  -0.38894  -0.37265  -0.36983
 Alpha  occ. eigenvalues --   -0.35767  -0.34398  -0.33265  -0.32137  -0.28716
 Alpha  occ. eigenvalues --   -0.24649  -0.22937
 Alpha virt. eigenvalues --    0.01510   0.07805   0.09282   0.11035   0.12598
 Alpha virt. eigenvalues --    0.14467   0.14807   0.15622   0.16787   0.17243
 Alpha virt. eigenvalues --    0.17565   0.19196   0.19778   0.20729   0.20846

 Mulliken charges:
               1
     1  C   -0.408647
     2  C   -0.250445
     3  C    0.293768
     4  N   -0.467579
     5  C   -0.004802
     6  C   -0.387528
     7  C   -0.157873
     8  N   -0.512539
     9  H    0.118512
    10  H    0.127617
    11  H    0.125433
    12  H    0.119014
    13  H    0.117379
    14  H    0.211943
    15  H    0.061677
    16  H    0.124517
    17  H    0.102350
    18  H    0.137891
    19  H    0.080217
    20  H    0.122886
    21  H    0.219647
    22  H    0.226561
 Sum of Mulliken charges =   0.00000

 Dipole moment (field-independent basis, Debye):
    X=              1.0097    Y=              0.3408    Z=              1.8539  Tot=              2.1383
 Quadrupole moment (field-independent basis, Debye-Ang):
   XX=            -46.5060   YY=            -52.9163   ZZ=            -50.4983
   XY=              3.4134   XZ=             -1.9301   YZ=             -1.2789

  Exact polarizability:  93.863  -1.197  75.050  -0.865   5.057  69.457
 Approx polarizability: 111.605  -2.676 114.503  -1.401  14.193 109.362

                      1                      2                      3
                      A                      A                      A
 Frequencies --     41.5953                75.6031               105.2623
 Red. masses --      3.3825                 1.9885                 2.5195
 Frc consts  --      0.0034                 0.0067                 0.0164
 IR Inten    --      2.0863                 0.8977                 0.6850

                      4                      5                      6
                      A                      A                      A
 Frequencies --    181.5705               222.8218               228.8882
 Red. masses --      2.6280                 1.3019                 1.0757
 Frc consts  --      0.0510                 0.0381                 0.0332
 IR Inten    --      3.7030                 5.9305                19.3667

                      7                      8                      9
                      A                      A                      A
 Frequencies --    241.2760               266.7652               280.4413
 Red. masses --      1.1745                 1.8971                 2.5667
 Frc consts  --      0.0403                 0.0795                 0.1189
 IR Inten    --      7.6538                 3.8548                 0.7400

                     10                     11                     12
                      A                      A                      A
 Frequencies --    343.1251               357.3697               478.9224
 Red. masses --      2.8718                 4.2235                 2.5155
 Frc consts  --      0.1992                 0.3178                 0.3399
 IR Inten    --      9.4374                 1.2379                 2.9284

                     13                     14                     15
                      A                      A                      A
 Frequencies --    564.7720               622.8385               783.3733
 Red. masses --      2.1789                 2.7010                 1.5189
 Frc consts  --      0.4095                 0.6173                 0.5492
 IR Inten    --      0.7120                15.5725                 3.2176

                     16                     17                     18
                      A                      A                      A
 Frequencies --    799.8597               839.1633               875.1076
 Red. masses --      2.0073                 1.6489                 1.9244
 Frc consts  --      0.7567                 0.6841                 0.8683
 IR Inten    --     23.1675                44.9366                32.1752

                     19                     20                     21
                      A                      A                      A
 Frequencies --    904.7580               929.7001               974.1896
 Red. masses --      1.1601                 1.4086                 2.0720
 Frc consts  --      0.5595                 0.7173                 1.1586
 IR Inten    --     30.7732                49.9739                13.2429

                     22                     23                     24
                      A                      A                      A
 Frequencies --   1017.2104              1033.1075              1074.5667
 Red. masses --      1.4594                 1.6170                 2.6032
 Frc consts  --      0.8897                 1.0168                 1.7710
 IR Inten    --      0.0462                11.6600                19.0949

                     25                     26                     27
                      A                      A                      A
 Frequencies --   1094.9658              1105.6185              1119.4322
 Red. masses --      1.9524                 1.5571                 1.7819
 Frc consts  --      1.3792                 1.1214                 1.3156
 IR Inten    --      3.1234                 4.8882                 8.7780

                     28                     29                     30
                      A                      A                      A
 Frequencies --   1138.1132              1215.2699              1283.1470
 Red. masses --      2.0034                 1.6024                 1.2357
 Frc consts  --      1.5290                 1.3944                 1.1987
 IR Inten    --      0.6951                16.8855                22.7346

                     31                     32                     33
                      A                      A                      A
 Frequencies --   1293.2413              1316.1070              1345.7938
 Red. masses --      1.2264                 1.2522                 1.2907
 Frc consts  --      1.2085                 1.2779                 1.3773
 IR Inten    --     24.0049                 9.2357                 5.3967

                     34                     35                     36
                      A                      A                      A
 Frequencies --   1356.9171              1388.4165              1407.9449
 Red. masses --      1.3906                 1.2852                 1.2463
 Frc consts  --      1.5085                 1.4597                 1.4556
 IR Inten    --      0.2943                 5.2683                 3.9301

                     37                     38                     39
                      A                      A                      A
 Frequencies --   1416.3463              1421.8908              1461.9891
 Red. masses --      1.5306                 1.6432                 1.0874
 Frc consts  --      1.8091                 1.9573                 1.3694
 IR Inten    --     26.0284                24.2977                 5.9016

                     40                     41                     42
                      A                      A                      A
 Frequencies --   1490.2846              1499.7888              1503.5596
 Red. masses --      1.0630                 1.0393                 1.0668
 Frc consts  --      1.3909                 1.3774                 1.4210
 IR Inten    --      3.1270                 4.7440                 5.9548

                     43                     44                     45
                      A                      A                      A
 Frequencies --   1506.5542              1508.3827              1658.8703
 Red. masses --      1.0518                 1.0677                 1.0904
 Frc consts  --      1.4066                 1.4313                 1.7679
 IR Inten    --      3.0978                 8.6237                18.5591

                     46                     47                     48
                      A                      A                      A
 Frequencies --   1723.3775              2973.6092              2988.9044
 Red. masses --      8.2836                 1.0736                 1.0800
 Frc consts  --     14.4954                 5.5934                 5.6845
 IR Inten    --     51.2710                58.7820                22.5072

                     49                     50                     51
                      A                      A                      A
 Frequencies --   3013.8606              3036.2520              3036.7483
 Red. masses --      1.0636                 1.0371                 1.0421
 Frc consts  --      5.6923                 5.6328                 5.6618
 IR Inten    --     23.0503                17.0218                13.2462

                     52                     53                     54
                      A                      A                      A
 Frequencies --   3042.7594              3089.7590              3102.4379
 Red. masses --      1.0876                 1.0896                 1.1017
 Frc consts  --      5.9327                 6.1289                 6.2475
 IR Inten    --     20.8479                12.7981                25.7723

                     55                     56                     57
                      A                      A                      A
 Frequencies --   3104.0624              3111.0805              3132.1224
 Red. masses --      1.1012                 1.1005                 1.1004
 Frc consts  --      6.2515                 6.2757                 6.3601
 IR Inten    --     33.2878                24.8122                11.0353

                     58                     59                     60
                      A                      A                      A
 Frequencies --   3444.1267              3486.8225              3565.9497
 Red. masses --      1.0734                 1.0501                 1.0913
 Frc consts  --      7.5017                 7.5224                 8.1761
 IR Inten    --      3.1617                 0.9521                 0.0652

 - Thermochemistry -
 -------------------
 Temperature   298.150 Kelvin.  Pressure   1.00000 Atm.
 Atom     1 has atomic number  6 and mass  12.00000

 Molecular mass:   114.11570 amu.
 Principal axes and moments of inertia in atomic units:
                           1         2         3
     Eigenvalues --   445.557921776.418191911.25957
           X            0.99999   0.00409   0.00291
           Y           -0.00396   0.99900  -0.04463
           Z           -0.00309   0.04461   0.99900
 This molecule is an asymmetric top.
 Rotational symmetry number  1.
 Warning -- assumption of classical behavior for rotation
           may cause significant error
 Rotational temperatures (Kelvin)      0.19439     0.04876     0.04532
 Rotational constants (GHZ):           4.05052     1.01594     0.94427
 Zero-point vibrational energy     524124.6 (Joules/Mol)
                                  125.26879 (Kcal/Mol)
 Warning -- explicit consideration of  13 degrees of freedom as
           vibrations may cause significant error
 Vibrational temperatures:     59.85   108.78   151.45   261.24   320.59
          (Kelvin)            329.32   347.14   383.82   403.49   493.68
                              514.18   689.06   812.58   896.13  1127.10
                             1150.82  1207.37  1259.08  1301.74  1337.63
                             1401.64  1463.54  1486.41  1546.06  1575.41
                             1590.74  1610.61  1637.49  1748.50  1846.16
                             1860.69  1893.58  1936.30  1952.30  1997.62
                             2025.72  2037.81  2045.78  2103.48  2144.19
                             2157.86  2163.29  2167.60  2170.23  2386.74
                             2479.56  4278.36  4300.37  4336.27  4368.49
                             4369.20  4377.85  4445.47  4463.72  4466.05
                             4476.15  4506.43  4955.33  5016.76  5130.61

 Zero-point correction=                           0.199629 (Hartree/Particle)
 Thermal correction to Energy=                    0.209902
 Thermal correction to Enthalpy=                  0.210847
 Thermal correction to Gibbs Free Energy=         0.164084
 Sum of electronic and zero-point Energies=           -346.387218
 Sum of electronic and thermal Energies=              -346.376944
 Sum of electronic and thermal Enthalpies=            -346.376000
 Sum of electronic and thermal Free Energies=         -346.422762

                     E (Thermal)             CV                S
                      KCal/Mol        Cal/Mol-Kelvin    Cal/Mol-Kelvin
 Total                  131.716             36.808             98.420
 Electronic               0.000              0.000              0.000
 Translational            0.889              2.981             40.112
 Rotational               0.889              2.981             28.805
 Vibrational            129.938             30.847             29.503
 Vibration     1          0.594              1.981              5.182
 Vibration     2          0.599              1.965              4.002
 Vibration     3          0.605              1.945              3.354
 Vibration     4          0.630              1.865              2.312
 Vibration     5          0.649              1.806              1.936
 Vibration     6          0.652              1.797              1.888
 Vibration     7          0.658              1.777              1.793
 Vibration     8          0.672              1.734              1.617
 Vibration     9          0.680              1.710              1.531
 Vibration    10          0.722              1.589              1.198
 Vibration    11          0.733              1.560              1.134
 Vibration    12          0.835              1.297              0.713
 Vibration    13          0.921              1.107              0.514

 Optimization completed.
    -- Stationary point found.
 Normal termination of Gaussian 16 at Mon May 31 16:16:10 2021.
