 Gaussian 16, Revision A.03,
 Gaussian 16:  ES64L-G16RevA.03 25-Dec-2016

 -----------------------------
 # opt freq b3lyp/6-31g(2df,p)
 -----------------------------

 -------------------
 Title Card Required
 -------------------
 Symbolic Z-matrix:
 Charge =  0 Multiplicity = 1

 SCF Done:  E(RB3LYP) =  -369.865818491     A.U. after   13 cycles
 SCF Done:  E(RB3LYP) =  -369.868551052     A.U. after   11 cycles
 SCF Done:  E(RB3LYP) =  -369.869007475     A.U. after   10 cycles
 SCF Done:  E(RB3LYP) =  -369.869045641     A.U. after    9 cycles
 SCF Done:  E(RB3LYP) =  -369.869049109     A.U. after    7 cycles
 SCF Done:  E(RB3LYP) =  -369.869051442     A.U. after    7 cycles
 SCF Done:  E(RB3LYP) =  -369.869051630     A.U. after    6 cycles
 SCF Done:  E(RB3LYP) =  -369.869051687     A.U. after    6 cycles
 SCF Done:  E(RB3LYP) =  -369.869051733     A.U. after    6 cycles
 SCF Done:  E(RB3LYP) =  -369.869051802     A.U. after    6 cycles
 SCF Done:  E(RB3LYP) =  -369.869355846     A.U. after    9 cycles
 SCF Done:  E(RB3LYP) =  -369.869362159     A.U. after    9 cycles
 SCF Done:  E(RB3LYP) =  -369.869362170     A.U. after    8 cycles
 SCF Done:  E(RB3LYP) =  -369.869364611     A.U. after    8 cycles
 SCF Done:  E(RB3LYP) =  -369.869364882     A.U. after    6 cycles
 SCF Done:  E(RB3LYP) =  -369.869364916     A.U. after    6 cycles
 SCF Done:  E(RB3LYP) =  -369.869364938     A.U. after    6 cycles
 SCF Done:  E(RB3LYP) =  -369.869364962     A.U. after    6 cycles
 SCF Done:  E(RB3LYP) =  -369.869364977     A.U. after    6 cycles
 Optimization completed.
    -- Stationary point found.
 Normal termination of Gaussian 16 at Tue Jun  1 06:30:07 2021.

 ----------------------------------------------------------------------
 #N Geom=AllCheck Guess=TCheck SCRF=Check GenChk RB3LYP/6-31G(2df,p) Fr
 eq
 ----------------------------------------------------------------------

 Structure from the checkpoint file:  "CCCpCpCNdCpCpC.chk"
 -------------------
 Title Card Required
 -------------------
 Charge =  0 Multiplicity = 1

                         Standard orientation:
 ---------------------------------------------------------------------
 Center     Atomic      Atomic             Coordinates (Angstroms)
 Number     Number       Type             X           Y           Z
 ---------------------------------------------------------------------
      1          6           0       -3.875834   -0.216099   -0.396310
      2          6           0       -2.497269   -0.776648   -0.032334
      3          6           0       -1.338497    0.224510   -0.176045
      4          6           0       -1.468045    1.428044    0.765565
      5          6           0        0.007216   -0.484542    0.041262
      6          7           0        1.121482    0.400705   -0.268231
      7          6           0        2.315361   -0.002769   -0.097034
      8          6           0        2.700964   -1.374898    0.425470
      9          6           0        3.449744    0.931287   -0.433975
     10          1           0       -4.643986   -0.993550   -0.334194
     11          1           0       -3.883798    0.177410   -1.419163
     12          1           0       -4.176192    0.595749    0.272879
     13          1           0       -2.290836   -1.647949   -0.668578
     14          1           0       -2.518959   -1.155555    0.999587
     15          1           0       -1.333096    0.599401   -1.209549
     16          1           0       -1.542186    1.098973    1.810370
     17          1           0       -2.353448    2.029901    0.542192
     18          1           0       -0.587970    2.069631    0.674099
     19          1           0        0.049634   -1.384989   -0.592088
     20          1           0        0.063558   -0.842619    1.083311
     21          1           0        2.282698   -1.542018    1.424875
     22          1           0        3.784353   -1.499272    0.482627
     23          1           0        2.297360   -2.164139   -0.219311
     24          1           0        3.060059    1.883338   -0.796036
     25          1           0        4.100261    0.489951   -1.199632
     26          1           0        4.080320    1.107492    0.446642
 ---------------------------------------------------------------------

 SCF Done:  E(RB3LYP) =  -369.869364977     A.U. after    1 cycles

 The electronic state is 1-A.
 Alpha  occ. eigenvalues --  -14.30282 -10.22294 -10.19473 -10.18534 -10.17651
 Alpha  occ. eigenvalues --  -10.17240 -10.17153 -10.16647 -10.15700  -0.90973
 Alpha  occ. eigenvalues --   -0.80016  -0.75182  -0.71396  -0.70005  -0.66292
 Alpha  occ. eigenvalues --   -0.61544  -0.54772  -0.51239  -0.46699  -0.46241
 Alpha  occ. eigenvalues --   -0.44585  -0.44053  -0.41969  -0.41068  -0.39561
 Alpha  occ. eigenvalues --   -0.39142  -0.38380  -0.36986  -0.36090  -0.35801
 Alpha  occ. eigenvalues --   -0.34481  -0.31257  -0.31182  -0.30771  -0.26834
 Alpha  occ. eigenvalues --   -0.23242
 Alpha virt. eigenvalues --    0.01138   0.08630   0.09917   0.11888   0.12508
 Alpha virt. eigenvalues --    0.14264   0.14550   0.15220   0.15714   0.16477
 Alpha virt. eigenvalues --    0.16885   0.17735   0.18115   0.18335   0.19133

 Mulliken charges:
               1
     1  C   -0.389358
     2  C   -0.170601
     3  C    0.046992
     4  C   -0.389540
     5  C   -0.153144
     6  N   -0.229583
     7  C    0.323751
     8  C   -0.475299
     9  C   -0.450915
    10  H    0.108326
    11  H    0.112634
    12  H    0.118274
    13  H    0.085994
    14  H    0.087889
    15  H    0.073606
    16  H    0.099170
    17  H    0.107681
    18  H    0.130092
    19  H    0.090570
    20  H    0.089923
    21  H    0.140571
    22  H    0.119668
    23  H    0.139826
    24  H    0.134236
    25  H    0.124639
    26  H    0.124597
 Sum of Mulliken charges =  -0.00000

 Dipole moment (field-independent basis, Debye):
    X=              1.1296    Y=             -1.3736    Z=              0.4229  Tot=              1.8280
 Quadrupole moment (field-independent basis, Debye-Ang):
   XX=            -54.1738   YY=            -59.1731   ZZ=            -58.5696
   XY=             -1.3435   XZ=              0.5969   YZ=              0.2168

  Exact polarizability: 126.898   0.221  88.453   0.520  -1.408  77.166
 Approx polarizability: 151.990  -2.838 126.379   1.353  -2.958 119.352

                      1                      2                      3
                      A                      A                      A
 Frequencies --     30.2311                63.7105                90.4381
 Red. masses --      2.8227                 2.8445                 1.0301
 Frc consts  --      0.0015                 0.0068                 0.0050
 IR Inten    --      1.0458                 0.0517                 0.2958

                      4                      5                      6
                      A                      A                      A
 Frequencies --     95.2549               112.6164               197.8062
 Red. masses --      1.8585                 2.7501                 1.1274
 Frc consts  --      0.0099                 0.0205                 0.0260
 IR Inten    --      0.0899                 0.5267                 1.1574

                      7                      8                      9
                      A                      A                      A
 Frequencies --    220.4593               243.6391               258.4971
 Red. masses --      1.0590                 2.1935                 1.7000
 Frc consts  --      0.0303                 0.0767                 0.0669
 IR Inten    --      0.0456                 0.5985                 0.9482

                     10                     11                     12
                      A                      A                      A
 Frequencies --    266.4874               287.9052               327.8842
 Red. masses --      2.3059                 1.8140                 2.5127
 Frc consts  --      0.0965                 0.0886                 0.1592
 IR Inten    --      0.4630                 3.0883                 0.5606

                     13                     14                     15
                      A                      A                      A
 Frequencies --    404.2952               428.4704               485.9130
 Red. masses --      2.0746                 2.1869                 2.5772
 Frc consts  --      0.1998                 0.2365                 0.3585
 IR Inten    --      1.2004                 0.3956                 3.2109

                     16                     17                     18
                      A                      A                      A
 Frequencies --    510.2556               573.4899               774.1461
 Red. masses --      2.4524                 3.1675                 1.4265
 Frc consts  --      0.3762                 0.6138                 0.5037
 IR Inten    --      0.8556                 4.3393                 2.8695

                     19                     20                     21
                      A                      A                      A
 Frequencies --    793.4350               840.5120               886.0538
 Red. masses --      2.4391                 2.2181                 1.3792
 Frc consts  --      0.9047                 0.9232                 0.6380
 IR Inten    --      0.7339                 0.1635                 0.2577

                     22                     23                     24
                      A                      A                      A
 Frequencies --    926.0376               943.0949               955.5240
 Red. masses --      2.0157                 1.2679                 1.4947
 Frc consts  --      1.0184                 0.6644                 0.8041
 IR Inten    --      4.8613                 0.4414                 6.3258

                     25                     26                     27
                      A                      A                      A
 Frequencies --    976.1766              1000.1091              1018.9444
 Red. masses --      1.2043                 2.4527                 1.6764
 Frc consts  --      0.6762                 1.4454                 1.0255
 IR Inten    --      6.7120                 5.2800                 5.2700

                     28                     29                     30
                      A                      A                      A
 Frequencies --   1051.7504              1099.9259              1121.1029
 Red. masses --      2.6242                 1.7888                 2.1809
 Frc consts  --      1.7103                 1.2751                 1.6151
 IR Inten    --      0.9377                 1.5940                 0.6033

                     31                     32                     33
                      A                      A                      A
 Frequencies --   1142.2240              1161.8477              1186.1380
 Red. masses --      1.7205                 2.3285                 1.8394
 Frc consts  --      1.3226                 1.8519                 1.5248
 IR Inten    --      4.5330                 1.0536                 5.9669

                     34                     35                     36
                      A                      A                      A
 Frequencies --   1252.7117              1257.0348              1294.8380
 Red. masses --      2.8242                 1.3313                 1.2684
 Frc consts  --      2.6113                 1.2394                 1.2530
 IR Inten    --     31.5384                 6.7009                 6.5514

                     37                     38                     39
                      A                      A                      A
 Frequencies --   1309.2990              1371.1556              1379.9900
 Red. masses --      1.1579                 1.3125                 1.3761
 Frc consts  --      1.1695                 1.4539                 1.5440
 IR Inten    --      4.7044                 6.6289                 1.8715

                     40                     41                     42
                      A                      A                      A
 Frequencies --   1385.0501              1396.6323              1399.3597
 Red. masses --      1.3826                 1.4122                 1.2782
 Frc consts  --      1.5628                 1.6229                 1.4747
 IR Inten    --     15.1042                 8.9149                 2.6079

                     43                     44                     45
                      A                      A                      A
 Frequencies --   1408.2488              1412.3612              1457.7966
 Red. masses --      1.3005                 1.2330                 1.0883
 Frc consts  --      1.5195                 1.4491                 1.3626
 IR Inten    --     17.9273                 0.3287                 5.5234

                     46                     47                     48
                      A                      A                      A
 Frequencies --   1471.5540              1482.0823              1482.4205
 Red. masses --      1.0617                 1.0497                 1.0717
 Frc consts  --      1.3546                 1.3585                 1.3877
 IR Inten    --     14.8468                 2.5979                 3.1163

                     49                     50                     51
                      A                      A                      A
 Frequencies --   1485.1260              1486.2211              1494.9354
 Red. masses --      1.0630                 1.0508                 1.0562
 Frc consts  --      1.3813                 1.3675                 1.3907
 IR Inten    --      1.9506                 8.3129                 4.0235

                     52                     53                     54
                      A                      A                      A
 Frequencies --   1499.6750              1508.0409              1513.5152
 Red. masses --      1.0434                 1.0704                 1.0445
 Frc consts  --      1.3826                 1.4343                 1.4097
 IR Inten    --      3.5869                 4.8869                 5.4812

                     55                     56                     57
                      A                      A                      A
 Frequencies --   1741.1566              2952.9891              2987.4856
 Red. masses --      9.3708                 1.0579                 1.0948
 Frc consts  --     16.7380                 5.4355                 5.7570
 IR Inten    --    124.6934                27.8136                17.3988

                     58                     59                     60
                      A                      A                      A
 Frequencies --   3000.9250              3008.2280              3020.8318
 Red. masses --      1.0653                 1.0803                 1.0388
 Frc consts  --      5.6526                 5.7597                 5.5850
 IR Inten    --     28.4895                23.5455                19.7565

                     61                     62                     63
                      A                      A                      A
 Frequencies --   3023.4014              3030.7924              3031.6222
 Red. masses --      1.0455                 1.0377                 1.0422
 Frc consts  --      5.6307                 5.6161                 5.6435
 IR Inten    --     20.5275                 9.4939                28.5168

                     64                     65                     66
                      A                      A                      A
 Frequencies --   3037.3659              3070.9468              3085.1422
 Red. masses --      1.0923                 1.0982                 1.0984
 Frc consts  --      5.9373                 6.1020                 6.1597
 IR Inten    --     51.8706                15.8019                 9.9048

                     67                     68                     69
                      A                      A                      A
 Frequencies --   3093.6045              3095.8658              3106.5671
 Red. masses --      1.0942                 1.1008                 1.0999
 Frc consts  --      6.1699                 6.2161                 6.2541
 IR Inten    --     33.3521                43.0310                40.1333

                     70                     71                     72
                      A                      A                      A
 Frequencies --   3121.4315              3124.3008              3145.9722
 Red. masses --      1.1007                 1.1005                 1.0990
 Frc consts  --      6.3187                 6.3292                 6.4083
 IR Inten    --     22.8189                19.5727                12.1713

 - Thermochemistry -
 -------------------
 Temperature   298.150 Kelvin.  Pressure   1.00000 Atm.
 Atom     1 has atomic number  6 and mass  12.00000

 Molecular mass:   127.13610 amu.
 Principal axes and moments of inertia in atomic units:
                           1         2         3
     Eigenvalues --   477.937382818.909953080.99565
           X            0.99999  -0.00352   0.00155
           Y            0.00353   0.99999  -0.00266
           Z           -0.00154   0.00266   1.00000
 This molecule is an asymmetric top.
 Rotational symmetry number  1.
 Warning -- assumption of classical behavior for rotation
           may cause significant error
 Rotational temperatures (Kelvin)      0.18122     0.03073     0.02811
 Rotational constants (GHZ):           3.77610     0.64023     0.58577
 Zero-point vibrational energy     621466.3 (Joules/Mol)
                                  148.53401 (Kcal/Mol)
 Warning -- explicit consideration of  17 degrees of freedom as
           vibrations may cause significant error
 Vibrational temperatures:     43.50    91.67   130.12   137.05   162.03
          (Kelvin)            284.60   317.19   350.54   371.92   383.42
                              414.23   471.75   581.69   616.47   699.12
                              734.14   825.12  1113.82  1141.58  1209.31
                             1274.83  1332.36  1356.90  1374.79  1404.50
                             1438.93  1466.03  1513.23  1582.55  1613.02
                             1643.41  1671.64  1706.59  1802.37  1808.59
                             1862.98  1883.79  1972.79  1985.50  1992.78
                             2009.44  2013.37  2026.16  2032.07  2097.44
                             2117.24  2132.39  2132.87  2136.77  2138.34
                             2150.88  2157.70  2169.73  2177.61  2505.14
                             4248.69  4298.33  4317.66  4328.17  4346.30
                             4350.00  4360.63  4361.83  4370.09  4418.41
                             4438.83  4451.01  4454.26  4469.66  4491.04
                             4495.17  4526.35

 Zero-point correction=                           0.236704 (Hartree/Particle)
 Thermal correction to Energy=                    0.248825
 Thermal correction to Enthalpy=                  0.249769
 Thermal correction to Gibbs Free Energy=         0.198213
 Sum of electronic and zero-point Energies=           -369.632661
 Sum of electronic and thermal Energies=              -369.620540
 Sum of electronic and thermal Enthalpies=            -369.619596
 Sum of electronic and thermal Free Energies=         -369.671152

                     E (Thermal)             CV                S
                      KCal/Mol        Cal/Mol-Kelvin    Cal/Mol-Kelvin
 Total                  156.140             43.163            108.508
 Electronic               0.000              0.000              0.000
 Translational            0.889              2.981             40.434
 Rotational               0.889              2.981             29.808
 Vibrational            154.362             37.201             38.267
 Vibration     1          0.594              1.984              5.814
 Vibration     2          0.597              1.972              4.339
 Vibration     3          0.602              1.956              3.651
 Vibration     4          0.603              1.953              3.549
 Vibration     5          0.607              1.939              3.223
 Vibration     6          0.637              1.843              2.153
 Vibration     7          0.647              1.810              1.955
 Vibration     8          0.659              1.773              1.776
 Vibration     9          0.667              1.748              1.672
 Vibration    10          0.672              1.735              1.619
 Vibration    11          0.685              1.696              1.486
 Vibration    12          0.711              1.620              1.270
 Vibration    13          0.769              1.461              0.947
 Vibration    14          0.790              1.408              0.864
 Vibration    15          0.842              1.281              0.694
 Vibration    16          0.865              1.227              0.633
 Vibration    17          0.930              1.089              0.498

 Optimization completed.
    -- Stationary point found.
 Normal termination of Gaussian 16 at Tue Jun  1 07:12:47 2021.
