 Gaussian 16, Revision A.03,
 Gaussian 16:  ES64L-G16RevA.03 25-Dec-2016

 -----------------------------
 # opt freq b3lyp/6-31g(2df,p)
 -----------------------------

 -------------------
 Title Card Required
 -------------------
 Symbolic Z-matrix:
 Charge =  0 Multiplicity = 1

 SCF Done:  E(RB3LYP) =  -463.027564045     A.U. after   12 cycles
 SCF Done:  E(RB3LYP) =  -463.033329751     A.U. after   11 cycles
 SCF Done:  E(RB3LYP) =  -463.033951507     A.U. after   11 cycles
 SCF Done:  E(RB3LYP) =  -463.034237015     A.U. after   10 cycles
 SCF Done:  E(RB3LYP) =  -463.034318773     A.U. after   10 cycles
 SCF Done:  E(RB3LYP) =  -463.034406914     A.U. after   10 cycles
 SCF Done:  E(RB3LYP) =  -463.034464680     A.U. after   10 cycles
 SCF Done:  E(RB3LYP) =  -463.034569984     A.U. after   11 cycles
 SCF Done:  E(RB3LYP) =  -462.998114069     A.U. after   12 cycles
 SCF Done:  E(RB3LYP) =  -463.035564034     A.U. after   11 cycles
 SCF Done:  E(RB3LYP) =  -463.041838186     A.U. after   10 cycles
 SCF Done:  E(RB3LYP) =  -463.042246277     A.U. after   10 cycles
 SCF Done:  E(RB3LYP) =  -463.042349837     A.U. after   10 cycles
 SCF Done:  E(RB3LYP) =  -463.042413861     A.U. after    9 cycles
 SCF Done:  E(RB3LYP) =  -463.042456922     A.U. after    9 cycles
 SCF Done:  E(RB3LYP) =  -463.042485394     A.U. after   10 cycles
 SCF Done:  E(RB3LYP) =  -463.042488959     A.U. after    8 cycles
 SCF Done:  E(RB3LYP) =  -463.042490929     A.U. after    7 cycles
 SCF Done:  E(RB3LYP) =  -463.042491386     A.U. after    7 cycles
 Optimization completed.
    -- Stationary point found.
 Normal termination of Gaussian 16 at Mon May 31 19:29:35 2021.

 ----------------------------------------------------------------------
 #N Geom=AllCheck Guess=TCheck SCRF=Check GenChk RB3LYP/6-31G(2df,p) Fr
 eq
 ----------------------------------------------------------------------

 Structure from the checkpoint file:  "CCCpNpCNNCF.chk"
 -------------------
 Title Card Required
 -------------------
 Charge =  0 Multiplicity = 1

                         Standard orientation:
 ---------------------------------------------------------------------
 Center     Atomic      Atomic             Coordinates (Angstroms)
 Number     Number       Type             X           Y           Z
 ---------------------------------------------------------------------
      1          6           0        3.958134   -0.518954    0.459398
      2          6           0        2.634962   -0.807482   -0.254678
      3          6           0        1.472061    0.092389    0.201902
      4          7           0        1.674862    1.533728   -0.020261
      5          6           0        0.157278   -0.312052   -0.474869
      6          7           0       -0.953224    0.434951    0.101421
      7          7           0       -2.164230    0.316878   -0.616307
      8          6           0       -3.081424   -0.629525   -0.082876
      9          9           0       -3.975134   -0.025609    0.782667
     10          1           0        4.749183   -1.189463    0.111042
     11          1           0        3.860695   -0.654174    1.542569
     12          1           0        4.296732    0.506974    0.280655
     13          1           0        2.355373   -1.856048   -0.090585
     14          1           0        2.767386   -0.691899   -1.340042
     15          1           0        1.331484   -0.035792    1.283200
     16          1           0        1.999612    1.695089   -0.971103
     17          1           0        2.395747    1.894070    0.595550
     18          1           0       -0.018316   -1.385851   -0.336232
     19          1           0        0.250072   -0.142733   -1.568566
     20          1           0       -0.688993    1.414544    0.139163
     21          1           0       -2.032551    0.217301   -1.619725
     22          1           0       -2.578386   -1.420230    0.489982
     23          1           0       -3.659751   -1.066462   -0.907148
 ---------------------------------------------------------------------

 SCF Done:  E(RB3LYP) =  -463.042491386     A.U. after    1 cycles

 The electronic state is 1-A.
 Alpha  occ. eigenvalues --  -24.64159 -14.33804 -14.33076 -14.31841 -10.26245
 Alpha  occ. eigenvalues --  -10.21610 -10.20536 -10.18695 -10.18222  -1.15947
 Alpha  occ. eigenvalues --   -0.96741  -0.89401  -0.80641  -0.77126  -0.70573
 Alpha  occ. eigenvalues --   -0.64038  -0.61565  -0.58433  -0.52859  -0.50885
 Alpha  occ. eigenvalues --   -0.48757  -0.47171  -0.45749  -0.44890  -0.44300
 Alpha  occ. eigenvalues --   -0.42960  -0.42539  -0.38015  -0.37277  -0.35926
 Alpha  occ. eigenvalues --   -0.34821  -0.33922  -0.33088  -0.31495  -0.25548
 Alpha  occ. eigenvalues --   -0.24180  -0.22388
 Alpha virt. eigenvalues --    0.06436   0.08668   0.10512   0.10846   0.12427
 Alpha virt. eigenvalues --    0.13927   0.14589   0.14989   0.15692   0.15959
 Alpha virt. eigenvalues --    0.16882   0.17471   0.17830   0.19983   0.20393

 Mulliken charges:
               1
     1  C   -0.391243
     2  C   -0.173510
     3  C    0.023286
     4  N   -0.514491
     5  C   -0.114093
     6  N   -0.275842
     7  N   -0.272853
     8  C    0.005654
     9  F   -0.155245
    10  H    0.117931
    11  H    0.118167
    12  H    0.107034
    13  H    0.098199
    14  H    0.089001
    15  H    0.095152
    16  H    0.222537
    17  H    0.234531
    18  H    0.098021
    19  H    0.062718
    20  H    0.243169
    21  H    0.211801
    22  H    0.087593
    23  H    0.082484
 Sum of Mulliken charges =  -0.00000

 Dipole moment (field-independent basis, Debye):
    X=              3.7700    Y=             -1.0549    Z=             -2.2036  Tot=              4.4924
 Quadrupole moment (field-independent basis, Debye-Ang):
   XX=            -61.6985   YY=            -54.9560   ZZ=            -54.0395
   XY=              5.4211   XZ=              5.6728   YZ=             -0.3818

  Exact polarizability: 100.854   2.501  72.220   2.769   0.276  70.629
 Approx polarizability: 114.102   3.161 105.762   0.533   0.438 108.816

                      1                      2                      3
                      A                      A                      A
 Frequencies --     42.8297                65.5386                79.2186
 Red. masses --      5.5515                 3.5368                 2.9320
 Frc consts  --      0.0060                 0.0090                 0.0108
 IR Inten    --      1.1798                 0.7269                 0.5349

                      4                      5                      6
                      A                      A                      A
 Frequencies --    106.9789               131.5840               176.1810
 Red. masses --      2.7081                 2.0801                 3.0604
 Frc consts  --      0.0183                 0.0212                 0.0560
 IR Inten    --      2.5232                 1.2986                 2.3563

                      7                      8                      9
                      A                      A                      A
 Frequencies --    231.9551               273.1251               279.6986
 Red. masses --      1.2062                 1.5047                 2.5700
 Frc consts  --      0.0382                 0.0661                 0.1185
 IR Inten    --      1.7290                 7.6329                10.0675

                     10                     11                     12
                      A                      A                      A
 Frequencies --    293.0934               389.5459               446.5100
 Red. masses --      1.9966                 2.8482                 2.6805
 Frc consts  --      0.1011                 0.2546                 0.3149
 IR Inten    --     15.6405                 7.0997                11.1831

                     13                     14                     15
                      A                      A                      A
 Frequencies --    458.7240               508.1809               554.8647
 Red. masses --      2.1896                 2.1434                 1.8752
 Frc consts  --      0.2715                 0.3261                 0.3402
 IR Inten    --      3.8392                20.8319                21.4350

                     16                     17                     18
                      A                      A                      A
 Frequencies --    652.6939               777.6889               831.7166
 Red. masses --      3.1798                 1.2439                 2.0801
 Frc consts  --      0.7981                 0.4433                 0.8478
 IR Inten    --     44.7333                 4.5579                67.6704

                     19                     20                     21
                      A                      A                      A
 Frequencies --    873.1391               900.9155               936.5239
 Red. masses --      1.5399                 1.6107                 1.6403
 Frc consts  --      0.6917                 0.7703                 0.8476
 IR Inten    --     88.4574                98.3125                11.6484

                     22                     23                     24
                      A                      A                      A
 Frequencies --    984.6611               997.2745              1019.8816
 Red. masses --      2.0563                 2.2809                 1.4947
 Frc consts  --      1.1746                 1.3366                 0.9160
 IR Inten    --      6.4109                 4.1709                 4.7421

                     25                     26                     27
                      A                      A                      A
 Frequencies --   1062.6935              1065.4105              1086.8602
 Red. masses --      2.0082                 3.0195                 2.6604
 Frc consts  --      1.3362                 2.0194                 1.8516
 IR Inten    --     15.2857               127.0191                37.3700

                     28                     29                     30
                      A                      A                      A
 Frequencies --   1150.4102              1161.7121              1179.8242
 Red. masses --      2.1103                 1.7488                 2.4621
 Frc consts  --      1.6455                 1.3906                 2.0192
 IR Inten    --     15.7757                12.7725                 5.8672

                     31                     32                     33
                      A                      A                      A
 Frequencies --   1188.0275              1242.9134              1268.4467
 Red. masses --      2.4487                 2.0651                 1.3285
 Frc consts  --      2.0363                 1.8797                 1.2594
 IR Inten    --      8.6044                16.9032                12.5086

                     34                     35                     36
                      A                      A                      A
 Frequencies --   1294.8767              1319.1099              1331.4539
 Red. masses --      1.2159                 1.0770                 1.2993
 Frc consts  --      1.2012                 1.1042                 1.3571
 IR Inten    --      0.8200                 0.1241                 2.3345

                     37                     38                     39
                      A                      A                      A
 Frequencies --   1371.7433              1385.0828              1407.2747
 Red. masses --      1.3634                 1.4828                 1.2435
 Frc consts  --      1.5116                 1.6760                 1.4510
 IR Inten    --      0.3321                 1.3671                 4.0104

                     40                     41                     42
                      A                      A                      A
 Frequencies --   1422.5101              1452.7549              1479.0958
 Red. masses --      1.3163                 1.2102                 1.1110
 Frc consts  --      1.5694                 1.5048                 1.4320
 IR Inten    --      4.4269                32.8757                 4.3224

                     43                     44                     45
                      A                      A                      A
 Frequencies --   1482.4637              1494.4102              1500.0580
 Red. masses --      1.0812                 1.1159                 1.0510
 Frc consts  --      1.3999                 1.4683                 1.3934
 IR Inten    --      0.7323                22.5711                 5.8662

                     46                     47                     48
                      A                      A                      A
 Frequencies --   1505.3470              1508.0027              1534.4487
 Red. masses --      1.1189                 1.0641                 1.2028
 Frc consts  --      1.4939                 1.4257                 1.6686
 IR Inten    --      6.0312                 5.7553                22.5433

                     49                     50                     51
                      A                      A                      A
 Frequencies --   1654.1869              2880.1886              3002.9880
 Red. masses --      1.0940                 1.0724                 1.0541
 Frc consts  --      1.7637                 5.2414                 5.6005
 IR Inten    --     19.2572                71.1049                45.4463

                     52                     53                     54
                      A                      A                      A
 Frequencies --   3004.4154              3028.3737              3031.8741
 Red. masses --      1.0633                 1.0765                 1.0419
 Frc consts  --      5.6550                 5.8169                 5.6427
 IR Inten    --     19.7219                14.2157                34.1984

                     55                     56                     57
                      A                      A                      A
 Frequencies --   3039.2591              3052.6467              3056.9759
 Red. masses --      1.0886                 1.0953                 1.1096
 Frc consts  --      5.9246                 6.0136                 6.1095
 IR Inten    --     10.8893                42.7536                57.5102

                     58                     59                     60
                      A                      A                      A
 Frequencies --   3097.1874              3105.8432              3470.1905
 Red. masses --      1.1015                 1.1004                 1.0747
 Frc consts  --      6.2254                 6.2539                 7.6248
 IR Inten    --     44.7458                29.7050                13.7176

                     61                     62                     63
                      A                      A                      A
 Frequencies --   3481.0647              3517.0978              3574.6791
 Red. masses --      1.0513                 1.0745                 1.0898
 Frc consts  --      7.5059                 7.8314                 8.2051
 IR Inten    --      0.2239                13.1220                 0.7501

 - Thermochemistry -
 -------------------
 Temperature   298.150 Kelvin.  Pressure   1.00000 Atm.
 Atom     1 has atomic number  6 and mass  12.00000

 Molecular mass:   135.11718 amu.
 Principal axes and moments of inertia in atomic units:
                           1         2         3
     Eigenvalues --   395.928233464.352033595.67832
           X            0.99990   0.00127   0.01387
           Y           -0.00144   0.99993   0.01186
           Z           -0.01385  -0.01188   0.99983
 This molecule is an asymmetric top.
 Rotational symmetry number  1.
 Rotational temperatures (Kelvin)      0.21876     0.02500     0.02409
 Rotational constants (GHZ):           4.55825     0.52095     0.50192
 Zero-point vibrational energy     537747.9 (Joules/Mol)
                                  128.52483 (Kcal/Mol)
 Warning -- explicit consideration of  15 degrees of freedom as
           vibrations may cause significant error
 Vibrational temperatures:     61.62    94.30   113.98   153.92   189.32
          (Kelvin)            253.49   333.73   392.97   402.42   421.70
                              560.47   642.43   660.00   731.16   798.33
                              939.08  1118.92  1196.65  1256.25  1296.22
                             1347.45  1416.71  1434.86  1467.38  1528.98
                             1532.89  1563.75  1655.18  1671.44  1697.50
                             1709.31  1788.28  1825.01  1863.04  1897.90
                             1915.67  1973.63  1992.83  2024.75  2046.67
                             2090.19  2128.09  2132.93  2150.12  2158.25
                             2165.86  2169.68  2207.73  2380.01  4143.95
                             4320.63  4322.68  4357.15  4362.19  4372.82
                             4392.08  4398.31  4456.16  4468.62  4992.83
                             5008.48  5060.32  5143.17

 Zero-point correction=                           0.204817 (Hartree/Particle)
 Thermal correction to Energy=                    0.216014
 Thermal correction to Enthalpy=                  0.216958
 Thermal correction to Gibbs Free Energy=         0.167119
 Sum of electronic and zero-point Energies=           -462.837674
 Sum of electronic and thermal Energies=              -462.826477
 Sum of electronic and thermal Enthalpies=            -462.825533
 Sum of electronic and thermal Free Energies=         -462.875373

                     E (Thermal)             CV                S
                      KCal/Mol        Cal/Mol-Kelvin    Cal/Mol-Kelvin
 Total                  135.551             39.589            104.896
 Electronic               0.000              0.000              0.000
 Translational            0.889              2.981             40.615
 Rotational               0.889              2.981             29.979
 Vibrational            133.773             33.627             34.302
 Vibration     1          0.595              1.980              5.124
 Vibration     2          0.597              1.971              4.283
 Vibration     3          0.600              1.963              3.910
 Vibration     4          0.606              1.944              3.323
 Vibration     5          0.612              1.922              2.923
 Vibration     6          0.628              1.872              2.368
 Vibration     7          0.653              1.792              1.864
 Vibration     8          0.676              1.723              1.576
 Vibration     9          0.680              1.711              1.536
 Vibration    10          0.688              1.687              1.456
 Vibration    11          0.757              1.493              1.002
 Vibration    12          0.806              1.369              0.806
 Vibration    13          0.817              1.342              0.770
 Vibration    14          0.863              1.232              0.638
 Vibration    15          0.910              1.129              0.534

 Optimization completed.
    -- Stationary point found.
 Normal termination of Gaussian 16 at Mon May 31 20:04:44 2021.
