 Gaussian 16, Revision A.03,
 Gaussian 16:  ES64L-G16RevA.03 25-Dec-2016

 -----------------------------
 # opt freq b3lyp/6-31g(2df,p)
 -----------------------------

 -------------------
 Title Card Required
 -------------------
 Symbolic Z-matrix:
 Charge =  0 Multiplicity = 1

 SCF Done:  E(RB3LYP) =  -385.888547210     A.U. after   13 cycles
 SCF Done:  E(RB3LYP) =  -385.892247572     A.U. after   11 cycles
 SCF Done:  E(RB3LYP) =  -385.892607429     A.U. after   10 cycles
 SCF Done:  E(RB3LYP) =  -385.892636017     A.U. after    9 cycles
 SCF Done:  E(RB3LYP) =  -385.892638631     A.U. after    8 cycles
 SCF Done:  E(RB3LYP) =  -385.892640391     A.U. after    7 cycles
 SCF Done:  E(RB3LYP) =  -385.892643368     A.U. after    9 cycles
 SCF Done:  E(RB3LYP) =  -385.892654363     A.U. after   10 cycles
 SCF Done:  E(RB3LYP) =  -385.893193152     A.U. after   11 cycles
 SCF Done:  E(RB3LYP) =  -385.893081522     A.U. after   11 cycles
 SCF Done:  E(RB3LYP) =  -385.897914003     A.U. after    9 cycles
 SCF Done:  E(RB3LYP) =  -385.897915333     A.U. after    8 cycles
 SCF Done:  E(RB3LYP) =  -385.897916341     A.U. after    8 cycles
 SCF Done:  E(RB3LYP) =  -385.897916955     A.U. after    9 cycles
 SCF Done:  E(RB3LYP) =  -385.897917115     A.U. after    7 cycles
 SCF Done:  E(RB3LYP) =  -385.897917294     A.U. after    7 cycles
 SCF Done:  E(RB3LYP) =  -385.897917403     A.U. after    7 cycles
 SCF Done:  E(RB3LYP) =  -385.897917434     A.U. after    6 cycles
 SCF Done:  E(RB3LYP) =  -385.897917451     A.U. after    6 cycles
 Optimization completed.
    -- Stationary point found.
 Normal termination of Gaussian 16 at Mon May 31 18:41:22 2021.

 ----------------------------------------------------------------------
 #N Geom=AllCheck Guess=TCheck SCRF=Check GenChk RB3LYP/6-31G(2df,p) Fr
 eq
 ----------------------------------------------------------------------

 Structure from the checkpoint file:  "CCCpCpdNCCCN.chk"
 -------------------
 Title Card Required
 -------------------
 Charge =  0 Multiplicity = 1

                         Standard orientation:
 ---------------------------------------------------------------------
 Center     Atomic      Atomic             Coordinates (Angstroms)
 Number     Number       Type             X           Y           Z
 ---------------------------------------------------------------------
      1          6           0       -3.746590   -0.870270    0.660651
      2          6           0       -2.849030   -0.649778   -0.569142
      3          6           0       -1.633868    0.198497   -0.264219
      4          6           0       -1.874697    1.667501    0.034942
      5          7           0       -0.491959   -0.362891   -0.267764
      6          6           0        0.697801    0.421559    0.037792
      7          6           0        1.957126   -0.425288   -0.144295
      8          6           0        3.240031    0.325567    0.206317
      9          7           0        4.414040   -0.521087   -0.031747
     10          1           0       -4.618428   -1.476939    0.398297
     11          1           0       -4.113862    0.075309    1.073243
     12          1           0       -3.197070   -1.390553    1.451255
     13          1           0       -3.436396   -0.164516   -1.360839
     14          1           0       -2.497961   -1.610685   -0.952924
     15          1           0       -2.934057    1.927713   -0.012213
     16          1           0       -1.336635    2.297937   -0.682718
     17          1           0       -1.499200    1.934616    1.029358
     18          1           0        0.650722    0.797242    1.073159
     19          1           0        0.759421    1.315907   -0.603648
     20          1           0        2.014808   -0.778653   -1.179259
     21          1           0        1.867174   -1.321747    0.483272
     22          1           0        3.165917    0.703639    1.242885
     23          1           0        3.333448    1.210595   -0.437022
     24          1           0        4.382478   -1.324195    0.590804
     25          1           0        5.260437   -0.014551    0.210648
 ---------------------------------------------------------------------

 SCF Done:  E(RB3LYP) =  -385.897917451     A.U. after    1 cycles

 The electronic state is 1-A.
 Alpha  occ. eigenvalues --  -14.30183 -14.29990 -10.21893 -10.19768 -10.19705
 Alpha  occ. eigenvalues --  -10.18470 -10.17928 -10.17731 -10.16524  -0.90871
 Alpha  occ. eigenvalues --   -0.86968  -0.78250  -0.74379  -0.71589  -0.66010
 Alpha  occ. eigenvalues --   -0.61834  -0.57567  -0.51194  -0.47951  -0.47118
 Alpha  occ. eigenvalues --   -0.46396  -0.44197  -0.43747  -0.42061  -0.41342
 Alpha  occ. eigenvalues --   -0.39403  -0.38410  -0.37272  -0.36024  -0.34309
 Alpha  occ. eigenvalues --   -0.33791  -0.32693  -0.32564  -0.26799  -0.23229
 Alpha  occ. eigenvalues --   -0.22726
 Alpha virt. eigenvalues --    0.01022   0.08331   0.08875   0.10923   0.12546
 Alpha virt. eigenvalues --    0.13789   0.14412   0.14441   0.15197   0.16586
 Alpha virt. eigenvalues --    0.16832   0.17375   0.18361   0.18676   0.20397

 Mulliken charges:
               1
     1  C   -0.379621
     2  C   -0.243390
     3  C    0.321184
     4  C   -0.476647
     5  N   -0.241812
     6  C   -0.146162
     7  C   -0.154531
     8  C   -0.147747
     9  N   -0.508299
    10  H    0.118168
    11  H    0.115005
    12  H    0.126746
    13  H    0.098113
    14  H    0.114924
    15  H    0.120470
    16  H    0.139692
    17  H    0.137831
    18  H    0.094528
    19  H    0.093595
    20  H    0.111773
    21  H    0.093788
    22  H    0.071798
    23  H    0.097577
    24  H    0.221125
    25  H    0.221892
 Sum of Mulliken charges =  -0.00000

 Dipole moment (field-independent basis, Debye):
    X=             -0.7776    Y=              1.7234    Z=              1.4322  Tot=              2.3720
 Quadrupole moment (field-independent basis, Debye-Ang):
   XX=            -52.3292   YY=            -57.2005   ZZ=            -58.2069
   XY=              0.6115   XZ=              5.9687   YZ=             -2.0670

  Exact polarizability: 124.671  -0.620  84.806   1.011   0.416  72.578
 Approx polarizability: 146.657  -5.362 123.988   1.489   0.247 110.544

                      1                      2                      3
                      A                      A                      A
 Frequencies --     25.8543                59.6002                75.4471
 Red. masses --      2.8646                 2.0145                 2.1831
 Frc consts  --      0.0011                 0.0042                 0.0073
 IR Inten    --      0.8205                 1.1798                 2.5112

                      4                      5                      6
                      A                      A                      A
 Frequencies --     96.8419               111.9580               125.2558
 Red. masses --      2.4636                 1.4965                 1.7653
 Frc consts  --      0.0136                 0.0111                 0.0163
 IR Inten    --      0.6087                 0.9761                 1.2241

                      7                      8                      9
                      A                      A                      A
 Frequencies --    201.2406               215.2320               242.0711
 Red. masses --      1.7840                 1.4669                 1.5582
 Frc consts  --      0.0426                 0.0400                 0.0538
 IR Inten    --      0.7496                 1.6186                12.4651

                     10                     11                     12
                      A                      A                      A
 Frequencies --    276.2867               300.0806               337.6900
 Red. masses --      1.6090                 2.8396                 2.6191
 Frc consts  --      0.0724                 0.1507                 0.1760
 IR Inten    --     24.1734                 0.8461                 4.0541

                     13                     14                     15
                      A                      A                      A
 Frequencies --    431.4189               465.6801               551.6888
 Red. masses --      2.9099                 2.7146                 3.2772
 Frc consts  --      0.3191                 0.3468                 0.5877
 IR Inten    --      6.4721                13.4692                 5.8706

                     16                     17                     18
                      A                      A                      A
 Frequencies --    598.1440               754.9196               775.1366
 Red. masses --      2.5390                 1.0971                 2.8338
 Frc consts  --      0.5352                 0.3684                 1.0032
 IR Inten    --      3.6550                 1.4752                 1.1601

                     19                     20                     21
                      A                      A                      A
 Frequencies --    799.4285               838.8192               890.1954
 Red. masses --      1.2321                 1.2003                 1.3223
 Frc consts  --      0.4639                 0.4976                 0.6174
 IR Inten    --      1.4513                57.6177                72.3700

                     22                     23                     24
                      A                      A                      A
 Frequencies --    944.8093               981.3129               991.1465
 Red. masses --      2.1444                 1.9957                 1.4534
 Frc consts  --      1.1278                 1.1323                 0.8412
 IR Inten    --      0.5288                 3.8191                 3.5350

                     25                     26                     27
                      A                      A                      A
 Frequencies --   1005.7804              1022.5322              1059.3030
 Red. masses --      2.0492                 2.4506                 2.7487
 Frc consts  --      1.2213                 1.5096                 1.8173
 IR Inten    --      2.6527                11.2415                 3.0702

                     28                     29                     30
                      A                      A                      A
 Frequencies --   1089.8980              1094.9476              1130.7759
 Red. masses --      2.3699                 2.0917                 1.7716
 Frc consts  --      1.6586                 1.4775                 1.3347
 IR Inten    --     13.3442                 2.5929                10.9122

                     31                     32                     33
                      A                      A                      A
 Frequencies --   1137.3060              1172.5117              1239.5836
 Red. masses --      1.8885                 1.3613                 1.9016
 Frc consts  --      1.4392                 1.1026                 1.7216
 IR Inten    --      0.1264                 0.8191                20.4720

                     34                     35                     36
                      A                      A                      A
 Frequencies --   1253.5088              1293.6082              1304.2433
 Red. masses --      1.5437                 1.2999                 1.2644
 Frc consts  --      1.4291                 1.2817                 1.2672
 IR Inten    --      8.7976                 4.3424                 8.3285

                     37                     38                     39
                      A                      A                      A
 Frequencies --   1316.1873              1337.0187              1347.6340
 Red. masses --      1.0676                 1.2458                 1.5811
 Frc consts  --      1.0897                 1.3121                 1.6918
 IR Inten    --      1.3918                 1.1274                 2.2701

                     40                     41                     42
                      A                      A                      A
 Frequencies --   1387.1421              1403.7889              1407.2880
 Red. masses --      1.3055                 1.3742                 1.2184
 Frc consts  --      1.4801                 1.5956                 1.4217
 IR Inten    --     19.3772                18.0116                 2.0466

                     43                     44                     45
                      A                      A                      A
 Frequencies --   1434.0485              1463.1539              1475.2675
 Red. masses --      1.4993                 1.0826                 1.0823
 Frc consts  --      1.8166                 1.3655                 1.3879
 IR Inten    --     21.9117                 3.8964                 5.1793

                     46                     47                     48
                      A                      A                      A
 Frequencies --   1481.5191              1485.1699              1494.4137
 Red. masses --      1.0594                 1.0602                 1.0840
 Frc consts  --      1.3700                 1.3778                 1.4263
 IR Inten    --      6.7886                 4.1761                 1.6925

                     49                     50                     51
                      A                      A                      A
 Frequencies --   1500.7250              1507.6382              1519.2770
 Red. masses --      1.0419                 1.0694                 1.0901
 Frc consts  --      1.3826                 1.4322                 1.4825
 IR Inten    --      7.5444                 5.0531                 1.0586

                     52                     53                     54
                      A                      A                      A
 Frequencies --   1658.7499              1734.2430              2923.4179
 Red. masses --      1.0886                 9.9439                 1.0728
 Frc consts  --      1.7647                17.6208                 5.4018
 IR Inten    --     21.3280               108.9955                72.7970

                     55                     56                     57
                      A                      A                      A
 Frequencies --   2958.0362              2987.9101              3016.1425
 Red. masses --      1.0564                 1.1016                 1.0670
 Frc consts  --      5.4462                 5.7945                 5.7188
 IR Inten    --     39.3500                28.4266                23.2140

                     58                     59                     60
                      A                      A                      A
 Frequencies --   3021.8937              3030.4115              3034.3814
 Red. masses --      1.0752                 1.0381                 1.0738
 Frc consts  --      5.7849                 5.6167                 5.8253
 IR Inten    --      2.0884                 6.7688                57.6407

                     61                     62                     63
                      A                      A                      A
 Frequencies --   3035.8085              3082.9151              3084.2877
 Red. masses --      1.0348                 1.0996                 1.0987
 Frc consts  --      5.6187                 6.1577                 6.1580
 IR Inten    --     27.7603                47.8521                 0.9111

                     64                     65                     66
                      A                      A                      A
 Frequencies --   3091.8636              3109.4262              3113.5330
 Red. masses --      1.0963                 1.0999                 1.1013
 Frc consts  --      6.1750                 6.2654                 6.2901
 IR Inten    --      2.1526                35.3575                28.7789

                     67                     68                     69
                      A                      A                      A
 Frequencies --   3124.9557              3482.4706              3560.1513
 Red. masses --      1.1000                 1.0494                 1.0918
 Frc consts  --      6.3287                 7.4987                 8.1530
 IR Inten    --     26.7327                 1.5425                 0.3302

 - Thermochemistry -
 -------------------
 Temperature   298.150 Kelvin.  Pressure   1.00000 Atm.
 Atom     1 has atomic number  6 and mass  12.00000

 Molecular mass:   128.13135 amu.
 Principal axes and moments of inertia in atomic units:
                           1         2         3
     Eigenvalues --   400.368923484.535543707.76844
           X            1.00000   0.00202   0.00049
           Y           -0.00201   0.99997  -0.00678
           Z           -0.00050   0.00678   0.99998
 This molecule is an asymmetric top.
 Rotational symmetry number  1.
 Rotational temperatures (Kelvin)      0.21634     0.02486     0.02336
 Rotational constants (GHZ):           4.50770     0.51793     0.48675
 Zero-point vibrational energy     595172.8 (Joules/Mol)
                                  142.24972 (Kcal/Mol)
 Warning -- explicit consideration of  16 degrees of freedom as
           vibrations may cause significant error
 Vibrational temperatures:     37.20    85.75   108.55   139.33   161.08
          (Kelvin)            180.22   289.54   309.67   348.29   397.51
                              431.75   485.86   620.72   670.01   793.76
                              860.60  1086.16  1115.25  1150.20  1206.87
                             1280.79  1359.37  1411.89  1426.04  1447.09
                             1471.20  1524.10  1568.12  1575.39  1626.93
                             1636.33  1686.98  1783.48  1803.52  1861.21
                             1876.52  1893.70  1923.67  1938.94  1995.79
                             2019.74  2024.77  2063.28  2105.15  2122.58
                             2131.58  2136.83  2150.13  2159.21  2169.16
                             2185.90  2386.57  2495.19  4206.15  4255.95
                             4298.94  4339.56  4347.83  4360.09  4365.80
                             4367.85  4435.63  4437.60  4448.50  4473.77
                             4479.68  4496.11  5010.50  5122.26

 Zero-point correction=                           0.226689 (Hartree/Particle)
 Thermal correction to Energy=                    0.238737
 Thermal correction to Enthalpy=                  0.239681
 Thermal correction to Gibbs Free Energy=         0.187520
 Sum of electronic and zero-point Energies=           -385.671228
 Sum of electronic and thermal Energies=              -385.659181
 Sum of electronic and thermal Enthalpies=            -385.658237
 Sum of electronic and thermal Free Energies=         -385.710398

                     E (Thermal)             CV                S
                      KCal/Mol        Cal/Mol-Kelvin    Cal/Mol-Kelvin
 Total                  149.810             41.927            109.783
 Electronic               0.000              0.000              0.000
 Translational            0.889              2.981             40.457
 Rotational               0.889              2.981             30.026
 Vibrational            148.032             35.965             39.299
 Vibration     1          0.593              1.985              6.125
 Vibration     2          0.597              1.974              4.470
 Vibration     3          0.599              1.965              4.006
 Vibration     4          0.603              1.951              3.517
 Vibration     5          0.607              1.940              3.235
 Vibration     6          0.610              1.928              3.018
 Vibration     7          0.638              1.838              2.122
 Vibration     8          0.645              1.818              1.999
 Vibration     9          0.658              1.776              1.788
 Vibration    10          0.678              1.717              1.557
 Vibration    11          0.693              1.674              1.416
 Vibration    12          0.718              1.600              1.223
 Vibration    13          0.792              1.402              0.854
 Vibration    14          0.823              1.326              0.750
 Vibration    15          0.907              1.136              0.541
 Vibration    16          0.956              1.036              0.453

                           ! Non-Optimized Parameters !
 Normal termination of Gaussian 16 at Mon May 31 19:20:19 2021.
