 Gaussian 16, Revision A.03,
 Gaussian 16:  ES64L-G16RevA.03 25-Dec-2016

 -----------------------------
 # opt freq b3lyp/6-31g(2df,p)
 -----------------------------

 -------------------
 Title Card Required
 -------------------
 Symbolic Z-matrix:
 Charge =  0 Multiplicity = 1

 SCF Done:  E(RB3LYP) =  -496.598498520     A.U. after   13 cycles
 SCF Done:  E(RB3LYP) =  -496.607539476     A.U. after   11 cycles
 SCF Done:  E(RB3LYP) =  -496.609116109     A.U. after   11 cycles
 SCF Done:  E(RB3LYP) =  -496.610611267     A.U. after   11 cycles
 SCF Done:  E(RB3LYP) =  -496.612124009     A.U. after   12 cycles
 SCF Done:  E(RB3LYP) =  -496.613274890     A.U. after   12 cycles
 SCF Done:  E(RB3LYP) =  -496.614683670     A.U. after   13 cycles
 SCF Done:  E(RB3LYP) =  -496.615117004     A.U. after   11 cycles
 SCF Done:  E(RB3LYP) =  -496.615326258     A.U. after   10 cycles
 SCF Done:  E(RB3LYP) =  -496.615456790     A.U. after   11 cycles
 SCF Done:  E(RB3LYP) =  -496.615720192     A.U. after   11 cycles
 SCF Done:  E(RB3LYP) =  -496.615784809     A.U. after   11 cycles
 SCF Done:  E(RB3LYP) =  -496.615882354     A.U. after    9 cycles
 SCF Done:  E(RB3LYP) =  -496.615934693     A.U. after   10 cycles
 SCF Done:  E(RB3LYP) =  -496.615944029     A.U. after   10 cycles
 SCF Done:  E(RB3LYP) =  -496.615959840     A.U. after    9 cycles
 SCF Done:  E(RB3LYP) =  -496.615955965     A.U. after    9 cycles
 SCF Done:  E(RB3LYP) =  -496.615962037     A.U. after    9 cycles
 SCF Done:  E(RB3LYP) =  -496.615962274     A.U. after    7 cycles
 Optimization completed.
    -- Stationary point found.
 Normal termination of Gaussian 16 at Tue Jun  1 03:08:37 2021.

 ----------------------------------------------------------------------
 #N Geom=AllCheck Guess=TCheck SCRF=Check GenChk RB3LYP/6-31G(2df,p) Fr
 eq
 ----------------------------------------------------------------------

 Structure from the checkpoint file:  "CCCpCppNpCNdCNCN.chk"
 -------------------
 Title Card Required
 -------------------
 Charge =  0 Multiplicity = 1

                         Standard orientation:
 ---------------------------------------------------------------------
 Center     Atomic      Atomic             Coordinates (Angstroms)
 Number     Number       Type             X           Y           Z
 ---------------------------------------------------------------------
      1          6           0       -4.316074   -0.499064    0.244514
      2          6           0       -3.059502    0.199122    0.774065
      3          6           0       -1.784468    0.001419   -0.076079
      4          6           0       -1.321195   -1.468908   -0.050970
      5          7           0       -2.038582    0.492949   -1.442454
      6          6           0       -0.677661    0.907091    0.513980
      7          7           0        0.538930    0.846347   -0.270710
      8          6           0        1.638569    0.666447    0.339068
      9          7           0        2.856429    0.668555   -0.287381
     10          6           0        4.043174    0.107018    0.308035
     11          7           0        4.294809   -1.249440   -0.174645
     12          1           0       -5.174454   -0.284567    0.889025
     13          1           0       -4.202256   -1.587399    0.206674
     14          1           0       -4.565419   -0.145715   -0.760737
     15          1           0       -2.856736   -0.141882    1.797972
     16          1           0       -3.257593    1.275928    0.830077
     17          1           0       -2.066334   -2.125603   -0.511572
     18          1           0       -1.152390   -1.825581    0.972828
     19          1           0       -0.386225   -1.578073   -0.607425
     20          1           0       -2.540246   -0.210873   -1.976096
     21          1           0       -1.136560    0.612683   -1.897519
     22          1           0       -0.511900    0.635348    1.571307
     23          1           0       -1.056651    1.937511    0.491746
     24          1           0        1.714321    0.535567    1.429992
     25          1           0        2.818272    0.661563   -1.297745
     26          1           0        3.920246    0.196111    1.399224
     27          1           0        4.914212    0.713663    0.032495
     28          1           0        3.623040   -1.897535    0.226834
     29          1           0        5.218509   -1.558783    0.113565
 ---------------------------------------------------------------------

 SCF Done:  E(RB3LYP) =  -496.615962274     A.U. after    1 cycles

 The electronic state is 1-A.
 Alpha  occ. eigenvalues --  -14.34447 -14.32149 -14.29280 -14.28282 -10.25220
 Alpha  occ. eigenvalues --  -10.24358 -10.19895 -10.18968 -10.16334 -10.16180
 Alpha  occ. eigenvalues --  -10.15799  -0.96020  -0.90235  -0.87177  -0.84711
 Alpha  occ. eigenvalues --   -0.75566  -0.71474  -0.68680  -0.65544  -0.61808
 Alpha  occ. eigenvalues --   -0.59503  -0.52977  -0.51470  -0.49235  -0.47597
 Alpha  occ. eigenvalues --   -0.46878  -0.45684  -0.44439  -0.42687  -0.42517
 Alpha  occ. eigenvalues --   -0.40105  -0.39751  -0.38135  -0.37286  -0.36293
 Alpha  occ. eigenvalues --   -0.36003  -0.34180  -0.32391  -0.31065  -0.30461
 Alpha  occ. eigenvalues --   -0.25837  -0.24503  -0.21977  -0.21580
 Alpha virt. eigenvalues --    0.03467   0.07440   0.08719   0.09910   0.11933
 Alpha virt. eigenvalues --    0.12640   0.13339   0.13987   0.14528   0.14972
 Alpha virt. eigenvalues --    0.15826   0.17045   0.17308   0.18026   0.18855

 Mulliken charges:
               1
     1  C   -0.406366
     2  C   -0.154621
     3  C    0.261777
     4  C   -0.422216
     5  N   -0.542359
     6  C   -0.149606
     7  N   -0.262767
     8  C    0.108585
     9  N   -0.259213
    10  C   -0.123835
    11  N   -0.496085
    12  H    0.109314
    13  H    0.109929
    14  H    0.122676
    15  H    0.079826
    16  H    0.095066
    17  H    0.103630
    18  H    0.096099
    19  H    0.114524
    20  H    0.213255
    21  H    0.231501
    22  H    0.067215
    23  H    0.102423
    24  H    0.079594
    25  H    0.246583
    26  H    0.100282
    27  H    0.115072
    28  H    0.230141
    29  H    0.229578
 Sum of Mulliken charges =  -0.00000

 Dipole moment (field-independent basis, Debye):
    X=              3.1532    Y=             -1.7313    Z=              1.7787  Tot=              4.0130
 Quadrupole moment (field-independent basis, Debye-Ang):
   XX=            -59.7800   YY=            -71.5693   ZZ=            -68.0972
   XY=              0.6579   XZ=              3.7292   YZ=              0.4280

  Exact polarizability: 154.030  -2.964  90.107   0.254  -0.041  92.877
 Approx polarizability: 183.784  -5.086 131.672   3.659  -2.747 144.881

                      1                      2                      3
                      A                      A                      A
 Frequencies --     32.2859                45.7786                64.7297
 Red. masses --      3.8992                 3.1863                 3.2434
 Frc consts  --      0.0024                 0.0039                 0.0080
 IR Inten    --      1.2628                 0.6621                 0.7519

                      4                      5                      6
                      A                      A                      A
 Frequencies --     95.2845               100.5345               189.5491
 Red. masses --      1.9329                 3.4260                 2.3736
 Frc consts  --      0.0103                 0.0204                 0.0502
 IR Inten    --      0.0699                 2.9866                 0.7968

                      7                      8                      9
                      A                      A                      A
 Frequencies --    214.3504               234.7521               243.4174
 Red. masses --      2.3010                 1.0915                 2.0419
 Frc consts  --      0.0623                 0.0354                 0.0713
 IR Inten    --      3.7353                 0.7865                 2.0551

                     10                     11                     12
                      A                      A                      A
 Frequencies --    260.9352               275.8348               297.0554
 Red. masses --      1.3372                 1.2562                 3.6787
 Frc consts  --      0.0536                 0.0563                 0.1913
 IR Inten    --     38.4064                 7.0201                14.2984

                     13                     14                     15
                      A                      A                      A
 Frequencies --    312.3938               328.7761               352.5685
 Red. masses --      1.3704                 1.9768                 2.0938
 Frc consts  --      0.0788                 0.1259                 0.1533
 IR Inten    --     27.2936                16.4071                12.4445

                     16                     17                     18
                      A                      A                      A
 Frequencies --    403.5727               435.7935               454.5135
 Red. masses --      2.1433                 2.4437                 2.7735
 Frc consts  --      0.2057                 0.2734                 0.3376
 IR Inten    --      1.2380                 3.9503                31.6788

                     19                     20                     21
                      A                      A                      A
 Frequencies --    469.5776               564.0266               615.7265
 Red. masses --      2.4269                 2.4881                 3.5252
 Frc consts  --      0.3153                 0.4664                 0.7874
 IR Inten    --     12.4449                18.9623                12.1960

                     22                     23                     24
                      A                      A                      A
 Frequencies --    641.9365               755.3545               782.7862
 Red. masses --      1.5446                 3.3258                 1.2260
 Frc consts  --      0.3750                 1.1180                 0.4426
 IR Inten    --    116.3935                 2.5910                 0.1562

                     25                     26                     27
                      A                      A                      A
 Frequencies --    841.7730               879.0843               910.4962
 Red. masses --      1.2829                 1.9900                 1.7537
 Frc consts  --      0.5356                 0.9061                 0.8566
 IR Inten    --    142.3642                40.9703                54.5372

                     28                     29                     30
                      A                      A                      A
 Frequencies --    932.4850               955.5714               968.1116
 Red. masses --      1.5937                 1.5631                 1.4648
 Frc consts  --      0.8165                 0.8410                 0.8089
 IR Inten    --     37.5005                 6.9558                12.2452

                     31                     32                     33
                      A                      A                      A
 Frequencies --    999.8527              1010.7849              1024.4672
 Red. masses --      1.7142                 1.7020                 1.7076
 Frc consts  --      1.0097                 1.0245                 1.0559
 IR Inten    --      8.3580                 4.7408                19.0348

                     34                     35                     36
                      A                      A                      A
 Frequencies --   1035.6098              1064.4324              1085.9014
 Red. masses --      2.4468                 2.2711                 2.8658
 Frc consts  --      1.5461                 1.5161                 1.9911
 IR Inten    --      7.3386                13.2801                39.2097

                     37                     38                     39
                      A                      A                      A
 Frequencies --   1120.9072              1171.6920              1192.8702
 Red. masses --      1.6062                 2.0985                 2.0718
 Frc consts  --      1.1890                 1.6974                 1.7369
 IR Inten    --      7.7711                37.5658                 5.1139

                     40                     41                     42
                      A                      A                      A
 Frequencies --   1200.2853              1251.5956              1274.0225
 Red. masses --      1.6023                 2.0649                 1.4248
 Frc consts  --      1.3601                 1.9058                 1.3626
 IR Inten    --     82.9455                29.5908                 4.7024

                     43                     44                     45
                      A                      A                      A
 Frequencies --   1301.1119              1311.5144              1329.4287
 Red. masses --      1.4582                 1.5868                 1.4298
 Frc consts  --      1.4544                 1.6081                 1.4889
 IR Inten    --     79.7985                48.6352                25.5116

                     46                     47                     48
                      A                      A                      A
 Frequencies --   1339.7736              1371.2212              1384.9831
 Red. masses --      1.3088                 1.2405                 1.3166
 Frc consts  --      1.3841                 1.3742                 1.4879
 IR Inten    --      4.9654                 3.0704                 2.6352

                     49                     50                     51
                      A                      A                      A
 Frequencies --   1396.7976              1405.5447              1406.2251
 Red. masses --      1.4684                 1.3266                 1.2389
 Frc consts  --      1.6880                 1.5441                 1.4435
 IR Inten    --      5.4255                 5.9480                 3.4264

                     52                     53                     54
                      A                      A                      A
 Frequencies --   1447.4269              1470.7576              1479.0706
 Red. masses --      1.3026                 1.0857                 1.0857
 Frc consts  --      1.6079                 1.3836                 1.3994
 IR Inten    --     38.3628                14.9750                16.9460

                     55                     56                     57
                      A                      A                      A
 Frequencies --   1492.8178              1498.1908              1499.7531
 Red. masses --      1.0834                 1.6321                 1.1202
 Frc consts  --      1.4225                 2.1584                 1.4846
 IR Inten    --      8.3958                33.1236                 8.8663

                     58                     59                     60
                      A                      A                      A
 Frequencies --   1506.8799              1511.6872              1511.7715
 Red. masses --      1.0495                 1.0547                 1.0909
 Frc consts  --      1.4041                 1.4200                 1.4689
 IR Inten    --      3.4925                 3.9405                 1.3630

                     61                     62                     63
                      A                      A                      A
 Frequencies --   1649.5964              1650.3121              1758.5232
 Red. masses --      1.0955                 1.0978                 6.4877
 Frc consts  --      1.7564                 1.7615                11.8205
 IR Inten    --     48.5280                28.4466               608.7222

                     64                     65                     66
                      A                      A                      A
 Frequencies --   2944.8026              2974.8292              2996.7744
 Red. masses --      1.0666                 1.0696                 1.0827
 Frc consts  --      5.4498                 5.5769                 5.7288
 IR Inten    --     50.1729                31.4394                77.0401

                     67                     68                     69
                      A                      A                      A
 Frequencies --   3014.5965              3022.7666              3027.1824
 Red. masses --      1.0570                 1.0428                 1.0927
 Frc consts  --      5.6598                 5.6137                 5.8999
 IR Inten    --     26.8838                31.0490                26.0023

                     70                     71                     72
                      A                      A                      A
 Frequencies --   3035.7971              3045.5999              3058.3755
 Red. masses --      1.0358                 1.0942                 1.0996
 Frc consts  --      5.6244                 5.9799                 6.0600
 IR Inten    --     28.5216                54.5561                22.5746

                     73                     74                     75
                      A                      A                      A
 Frequencies --   3087.0502              3099.2030              3108.3002
 Red. masses --      1.0974                 1.1000                 1.1014
 Frc consts  --      6.1618                 6.2250                 6.2697
 IR Inten    --     36.8426                47.4085                25.3377

                     76                     77                     78
                      A                      A                      A
 Frequencies --   3112.0958              3479.7922              3486.6961
 Red. masses --      1.1007                 1.0491                 1.0488
 Frc consts  --      6.2808                 7.4845                 7.5126
 IR Inten    --     33.4843                11.6108                 0.7035

                     79                     80                     81
                      A                      A                      A
 Frequencies --   3558.2914              3573.1290              3596.2648
 Red. masses --      1.0916                 1.0932                 1.0746
 Frc consts  --      8.1430                 8.2231                 8.1886
 IR Inten    --      2.5230                 0.2586                22.6461

 - Thermochemistry -
 -------------------
 Temperature   298.150 Kelvin.  Pressure   1.00000 Atm.
 Atom     1 has atomic number  6 and mass  12.00000

 Molecular mass:   158.15315 amu.
 Principal axes and moments of inertia in atomic units:
                           1         2         3
     Eigenvalues --   647.246814724.606284883.29242
           X            1.00000   0.00159   0.00165
           Y           -0.00164   0.99956   0.02959
           Z           -0.00160  -0.02959   0.99956
 This molecule is an asymmetric top.
 Rotational symmetry number  1.
 Warning -- assumption of classical behavior for rotation
           may cause significant error
 Rotational temperatures (Kelvin)      0.13382     0.01833     0.01774
 Rotational constants (GHZ):           2.78834     0.38199     0.36957
 Zero-point vibrational energy     688070.5 (Joules/Mol)
                                  164.45280 (Kcal/Mol)
 Warning -- explicit consideration of  21 degrees of freedom as
           vibrations may cause significant error
 Vibrational temperatures:     46.45    65.87    93.13   137.09   144.65
          (Kelvin)            272.72   308.40   337.76   350.22   375.43
                              396.86   427.40   449.46   473.04   507.27
                              580.65   627.01   653.94   675.62   811.51
                              885.89   923.60  1086.79  1126.25  1211.12
                             1264.81  1310.00  1341.64  1374.85  1392.90
                             1438.57  1454.29  1473.98  1490.01  1531.48
                             1562.37  1612.74  1685.80  1716.27  1726.94
                             1800.77  1833.03  1872.01  1886.98  1912.75
                             1927.64  1972.88  1992.68  2009.68  2022.27
                             2023.24  2082.52  2116.09  2128.05  2147.83
                             2155.56  2157.81  2168.06  2174.98  2175.10
                             2373.40  2374.43  2530.12  4236.91  4280.12
                             4311.69  4337.33  4349.09  4355.44  4367.83
                             4381.94  4400.32  4441.58  4459.06  4472.15
                             4477.61  5006.64  5016.58  5119.59  5140.94
                             5174.22

 Zero-point correction=                           0.262072 (Hartree/Particle)
 Thermal correction to Energy=                    0.275992
 Thermal correction to Enthalpy=                  0.276936
 Thermal correction to Gibbs Free Energy=         0.221165
 Sum of electronic and zero-point Energies=           -496.353890
 Sum of electronic and thermal Energies=              -496.339971
 Sum of electronic and thermal Enthalpies=            -496.339026
 Sum of electronic and thermal Free Energies=         -496.394797

                     E (Thermal)             CV                S
                      KCal/Mol        Cal/Mol-Kelvin    Cal/Mol-Kelvin
 Total                  173.187             51.078            117.379
 Electronic               0.000              0.000              0.000
 Translational            0.889              2.981             41.084
 Rotational               0.889              2.981             31.080
 Vibrational            171.410             45.117             45.215
 Vibration     1          0.594              1.983              5.684
 Vibration     2          0.595              1.979              4.992
 Vibration     3          0.597              1.971              4.308
 Vibration     4          0.603              1.953              3.549
 Vibration     5          0.604              1.949              3.444
 Vibration     6          0.633              1.854              2.232
 Vibration     7          0.644              1.819              2.006
 Vibration     8          0.655              1.788              1.842
 Vibration     9          0.659              1.774              1.778
 Vibration    10          0.669              1.744              1.656
 Vibration    11          0.677              1.718              1.559
 Vibration    12          0.691              1.679              1.433
 Vibration    13          0.701              1.650              1.350
 Vibration    14          0.712              1.618              1.266
 Vibration    15          0.729              1.570              1.155
 Vibration    16          0.769              1.462              0.950
 Vibration    17          0.796              1.392              0.840
 Vibration    18          0.813              1.351              0.782
 Vibration    19          0.827              1.318              0.739
 Vibration    20          0.920              1.109              0.516
 Vibration    21          0.975              0.999              0.423

                           ! Non-Optimized Parameters !
 Normal termination of Gaussian 16 at Tue Jun  1 04:33:05 2021.
