 Gaussian 16, Revision A.03,
 Gaussian 16:  ES64L-G16RevA.03 25-Dec-2016

 -----------------------------
 # opt freq b3lyp/6-31g(2df,p)
 -----------------------------

 -------------------
 Title Card Required
 -------------------
 Symbolic Z-matrix:
 Charge =  0 Multiplicity = 1

 SCF Done:  E(RB3LYP) =  -480.540177051     A.U. after   13 cycles
 SCF Done:  E(RB3LYP) =  -480.547082616     A.U. after   11 cycles
 SCF Done:  E(RB3LYP) =  -480.548896505     A.U. after   11 cycles
 SCF Done:  E(RB3LYP) =  -480.550374565     A.U. after   11 cycles
 SCF Done:  E(RB3LYP) =  -480.551209353     A.U. after   10 cycles
 SCF Done:  E(RB3LYP) =  -480.552071814     A.U. after   12 cycles
 SCF Done:  E(RB3LYP) =  -480.552757385     A.U. after   10 cycles
 SCF Done:  E(RB3LYP) =  -480.553315280     A.U. after   11 cycles
 SCF Done:  E(RB3LYP) =  -480.553388801     A.U. after   10 cycles
 SCF Done:  E(RB3LYP) =  -480.553399337     A.U. after    9 cycles
 SCF Done:  E(RB3LYP) =  -480.555860322     A.U. after   11 cycles
 SCF Done:  E(RB3LYP) =  -480.555896757     A.U. after   10 cycles
 SCF Done:  E(RB3LYP) =  -480.555911458     A.U. after    9 cycles
 SCF Done:  E(RB3LYP) =  -480.555919992     A.U. after    9 cycles
 SCF Done:  E(RB3LYP) =  -480.555923970     A.U. after    9 cycles
 SCF Done:  E(RB3LYP) =  -480.555928408     A.U. after    9 cycles
 SCF Done:  E(RB3LYP) =  -480.555928817     A.U. after    7 cycles
 SCF Done:  E(RB3LYP) =  -480.555928876     A.U. after    7 cycles
 SCF Done:  E(RB3LYP) =  -480.555928900     A.U. after    7 cycles
 Optimization completed.
    -- Stationary point found.
 Normal termination of Gaussian 16 at Tue Jun  1 03:08:07 2021.

 ----------------------------------------------------------------------
 #N Geom=AllCheck Guess=TCheck SCRF=Check GenChk RB3LYP/6-31G(2df,p) Fr
 eq
 ----------------------------------------------------------------------

 Structure from the checkpoint file:  "CCCpCNpCCCdNCN.chk"
 -------------------
 Title Card Required
 -------------------
 Charge =  0 Multiplicity = 1

                         Standard orientation:
 ---------------------------------------------------------------------
 Center     Atomic      Atomic             Coordinates (Angstroms)
 Number     Number       Type             X           Y           Z
 ---------------------------------------------------------------------
      1          6           0       -4.084712   -1.384556   -0.444089
      2          6           0       -2.717349   -1.346903    0.247292
      3          6           0       -1.817956   -0.137197   -0.087408
      4          6           0       -2.347798    1.192136    0.485918
      5          7           0       -3.506416    1.707360   -0.254326
      6          6           0       -0.379147   -0.396869    0.412777
      7          6           0        0.701387    0.474556   -0.256861
      8          6           0        2.063390    0.224955    0.322737
      9          7           0        3.022463   -0.238519   -0.359439
     10          6           0        4.293170   -0.460796    0.303047
     11          7           0        5.318315    0.311076   -0.399400
     12          1           0       -4.628792   -2.293276   -0.164700
     13          1           0       -3.968588   -1.391921   -1.534305
     14          1           0       -4.689239   -0.513775   -0.187758
     15          1           0       -2.168166   -2.259573   -0.018165
     16          1           0       -2.853483   -1.388529    1.337423
     17          1           0       -1.776093   -0.039181   -1.183911
     18          1           0       -1.519715    1.918915    0.532871
     19          1           0       -2.663803    1.023040    1.524123
     20          1           0       -3.226075    1.941943   -1.202719
     21          1           0       -3.823309    2.575505    0.167023
     22          1           0       -0.122448   -1.447529    0.235766
     23          1           0       -0.343584   -0.256701    1.502904
     24          1           0        0.460828    1.537711   -0.121824
     25          1           0        0.739124    0.276019   -1.332142
     26          1           0        2.175942    0.457279    1.396714
     27          1           0        4.469213   -1.551450    0.289551
     28          1           0        4.284853   -0.140299    1.359288
     29          1           0        5.312788    0.031725   -1.376960
     30          1           0        6.234094    0.068718   -0.031494
 ---------------------------------------------------------------------

 SCF Done:  E(RB3LYP) =  -480.555928900     A.U. after    1 cycles

 The electronic state is 1-A.
 Alpha  occ. eigenvalues --  -14.31431 -14.30780 -14.30262 -10.22545 -10.22023
 Alpha  occ. eigenvalues --  -10.20272 -10.18407 -10.18356 -10.18292 -10.17187
 Alpha  occ. eigenvalues --  -10.15631  -0.92558  -0.87878  -0.85659  -0.80347
 Alpha  occ. eigenvalues --   -0.75507  -0.70496  -0.65854  -0.63031  -0.59756
 Alpha  occ. eigenvalues --   -0.56287  -0.55151  -0.49944  -0.47430  -0.47296
 Alpha  occ. eigenvalues --   -0.45909  -0.45574  -0.44283  -0.42244  -0.40731
 Alpha  occ. eigenvalues --   -0.40343  -0.39821  -0.38540  -0.36940  -0.35418
 Alpha  occ. eigenvalues --   -0.35000  -0.33121  -0.32116  -0.31853  -0.31544
 Alpha  occ. eigenvalues --   -0.28729  -0.24670  -0.23229  -0.23152
 Alpha virt. eigenvalues --    0.00503   0.08075   0.09516   0.10093   0.10572
 Alpha virt. eigenvalues --    0.11603   0.12442   0.14047   0.14694   0.15644
 Alpha virt. eigenvalues --    0.15908   0.16414   0.16739   0.17617   0.17895

 Mulliken charges:
               1
     1  C   -0.384413
     2  C   -0.174466
     3  C    0.049162
     4  C   -0.149982
     5  N   -0.505056
     6  C   -0.203709
     7  C   -0.263705
     8  C    0.042160
     9  N   -0.143589
    10  C   -0.094329
    11  N   -0.498442
    12  H    0.098357
    13  H    0.101926
    14  H    0.143453
    15  H    0.087892
    16  H    0.088444
    17  H    0.063909
    18  H    0.077480
    19  H    0.100281
    20  H    0.223337
    21  H    0.225107
    22  H    0.103309
    23  H    0.092468
    24  H    0.108326
    25  H    0.113860
    26  H    0.073929
    27  H    0.086821
    28  H    0.084046
    29  H    0.230030
    30  H    0.223393
 Sum of Mulliken charges =  -0.00000

 Dipole moment (field-independent basis, Debye):
    X=              0.3380    Y=              0.3480    Z=              0.8838  Tot=              1.0082
 Quadrupole moment (field-independent basis, Debye-Ang):
   XX=            -71.6178   YY=            -68.2932   ZZ=            -68.1871
   XY=             -9.6837   XZ=              1.6631   YZ=             -0.1462

  Exact polarizability: 151.210  -4.191  97.346  -0.795   0.920  95.556
 Approx polarizability: 170.574  -9.093 140.036  -6.734   4.352 152.659

                      1                      2                      3
                      A                      A                      A
 Frequencies --     26.4835                36.5383                43.6378
 Red. masses --      3.2669                 2.1842                 2.6666
 Frc consts  --      0.0013                 0.0017                 0.0030
 IR Inten    --      0.2319                 2.0418                 1.0237

                      4                      5                      6
                      A                      A                      A
 Frequencies --     58.3655                95.3607               112.1806
 Red. masses --      2.9540                 3.2586                 2.4934
 Frc consts  --      0.0059                 0.0175                 0.0185
 IR Inten    --      0.8767                 3.3161                 2.0333

                      7                      8                      9
                      A                      A                      A
 Frequencies --    125.9856               188.8488               200.0669
 Red. masses --      2.8317                 2.0043                 1.1291
 Frc consts  --      0.0265                 0.0421                 0.0266
 IR Inten    --      2.8538                 3.1349                45.0485

                     10                     11                     12
                      A                      A                      A
 Frequencies --    234.9758               237.4147               249.1087
 Red. masses --      2.3127                 1.2294                 1.3707
 Frc consts  --      0.0752                 0.0408                 0.0501
 IR Inten    --      9.4333                 2.8555                21.0763

                     13                     14                     15
                      A                      A                      A
 Frequencies --    294.8263               324.6673               338.5330
 Red. masses --      2.8916                 2.2010                 2.7790
 Frc consts  --      0.1481                 0.1367                 0.1876
 IR Inten    --      2.8571                15.1465                 2.1835

                     16                     17                     18
                      A                      A                      A
 Frequencies --    372.9815               437.6324               489.1948
 Red. masses --      2.7229                 2.0424                 4.1047
 Frc consts  --      0.2232                 0.2305                 0.5788
 IR Inten    --      0.3300                 0.9606                 4.5868

                     19                     20                     21
                      A                      A                      A
 Frequencies --    556.2456               578.9964               753.6775
 Red. masses --      2.6802                 3.2388                 1.3235
 Frc consts  --      0.4886                 0.6397                 0.4429
 IR Inten    --      0.4932                 2.5780                 7.8090

                     22                     23                     24
                      A                      A                      A
 Frequencies --    773.1783               816.1463               867.0150
 Red. masses --      1.2888                 1.3972                 1.3484
 Frc consts  --      0.4539                 0.5483                 0.5972
 IR Inten    --      5.9403                39.5744               112.1668

                     25                     26                     27
                      A                      A                      A
 Frequencies --    876.9175               888.2999               949.3934
 Red. masses --      1.4839                 1.6755                 1.7487
 Frc consts  --      0.6723                 0.7789                 0.9287
 IR Inten    --     41.8203                63.0662                 8.3224

                     28                     29                     30
                      A                      A                      A
 Frequencies --    966.3006               981.6230              1017.4481
 Red. masses --      1.9220                 1.8294                 2.6831
 Frc consts  --      1.0574                 1.0386                 1.6365
 IR Inten    --     18.3347                 4.3766                 4.9629

                     31                     32                     33
                      A                      A                      A
 Frequencies --   1035.1846              1043.4020              1054.1677
 Red. masses --      1.7820                 2.1706                 2.5115
 Frc consts  --      1.1251                 1.3923                 1.6444
 IR Inten    --     12.1822                14.6235                 1.6424

                     34                     35                     36
                      A                      A                      A
 Frequencies --   1082.7977              1083.7094              1087.8553
 Red. masses --      2.1178                 1.5764                 2.3409
 Frc consts  --      1.4630                 1.0908                 1.6322
 IR Inten    --      8.7221                 8.9014                13.9002

                     37                     38                     39
                      A                      A                      A
 Frequencies --   1121.7046              1141.7755              1149.7048
 Red. masses --      1.8333                 1.9955                 2.2030
 Frc consts  --      1.3591                 1.5327                 1.7157
 IR Inten    --     11.9270                 4.3726                 1.9638

                     40                     41                     42
                      A                      A                      A
 Frequencies --   1186.1743              1232.3223              1244.2325
 Red. masses --      1.4841                 1.3997                 1.4280
 Frc consts  --      1.2303                 1.2524                 1.3025
 IR Inten    --      6.0178                 5.5350                 5.2772

                     43                     44                     45
                      A                      A                      A
 Frequencies --   1262.7856              1302.2222              1303.6011
 Red. masses --      1.2764                 1.2613                 1.2355
 Frc consts  --      1.1992                 1.2602                 1.2370
 IR Inten    --      0.2460                 0.4841                11.6179

                     46                     47                     48
                      A                      A                      A
 Frequencies --   1316.8947              1320.8849              1331.9941
 Red. masses --      1.1951                 1.1413                 1.2236
 Frc consts  --      1.2211                 1.1732                 1.2791
 IR Inten    --      2.3053                 0.2322                 3.4150

                     49                     50                     51
                      A                      A                      A
 Frequencies --   1375.5658              1380.2629              1388.2495
 Red. masses --      1.3145                 1.3652                 1.4521
 Frc consts  --      1.4655                 1.5324                 1.6488
 IR Inten    --      1.3302                 3.8903                 0.7570

                     52                     53                     54
                      A                      A                      A
 Frequencies --   1393.7871              1414.5601              1434.1726
 Red. masses --      1.3193                 1.2295                 1.3980
 Frc consts  --      1.5100                 1.4496                 1.6942
 IR Inten    --     24.3871                 1.9202                 6.5793

                     55                     56                     57
                      A                      A                      A
 Frequencies --   1441.5708              1472.0835              1483.2106
 Red. masses --      1.3743                 1.0881                 1.0798
 Frc consts  --      1.6827                 1.3893                 1.3996
 IR Inten    --     61.7424                 1.0874                 1.4168

                     58                     59                     60
                      A                      A                      A
 Frequencies --   1493.6030              1497.9502              1510.9656
 Red. masses --      1.0432                 1.0859                 1.0773
 Frc consts  --      1.3711                 1.4356                 1.4491
 IR Inten    --      5.1320                 4.0043                 6.4957

                     61                     62                     63
                      A                      A                      A
 Frequencies --   1513.2274              1517.8545              1637.9074
 Red. masses --      1.0724                 1.0965                 1.0929
 Frc consts  --      1.4469                 1.4884                 1.7274
 IR Inten    --      4.6642                 3.4769                32.5521

                     64                     65                     66
                      A                      A                      A
 Frequencies --   1655.7291              1765.2455              2927.1265
 Red. masses --      1.0884                 8.6926                 1.0572
 Frc consts  --      1.7579                15.9591                 5.3371
 IR Inten    --     25.0314               115.0014                76.3519

                     67                     68                     69
                      A                      A                      A
 Frequencies --   2952.2485              2955.3884              2962.0517
 Red. masses --      1.0716                 1.0888                 1.0957
 Frc consts  --      5.5027                 5.6032                 5.6643
 IR Inten    --    100.1019                16.8443                97.0216

                     70                     71                     72
                      A                      A                      A
 Frequencies --   2977.7589              3002.3383              3009.5907
 Red. masses --      1.0799                 1.0607                 1.0652
 Frc consts  --      5.6418                 5.6332                 5.6844
 IR Inten    --      6.4338                 7.2477                42.2288

                     73                     74                     75
                      A                      A                      A
 Frequencies --   3019.9504              3028.1685              3030.6759
 Red. masses --      1.0659                 1.0646                 1.0726
 Frc consts  --      5.7273                 5.7517                 5.8048
 IR Inten    --     14.9002                27.0025                43.4745

                     76                     77                     78
                      A                      A                      A
 Frequencies --   3039.6240              3058.4560              3087.2838
 Red. masses --      1.0897                 1.0939                 1.1006
 Frc consts  --      5.9318                 6.0286                 6.1806
 IR Inten    --     45.5014                34.0859                48.0661

                     79                     80                     81
                      A                      A                      A
 Frequencies --   3093.4394              3144.5192              3482.6396
 Red. masses --      1.0985                 1.0974                 1.0490
 Frc consts  --      6.1934                 6.3933                 7.4960
 IR Inten    --     28.9748                11.0856                 0.5284

                     82                     83                     84
                      A                      A                      A
 Frequencies --   3483.7086              3561.6307              3566.5867
 Red. masses --      1.0494                 1.0921                 1.0919
 Frc consts  --      7.5034                 8.1619                 8.1837
 IR Inten    --      0.4919                 0.1384                 0.4021

 - Thermochemistry -
 -------------------
 Temperature   298.150 Kelvin.  Pressure   1.00000 Atm.
 Atom     1 has atomic number  6 and mass  12.00000

 Molecular mass:   157.15790 amu.
 Principal axes and moments of inertia in atomic units:
                           1         2         3
     Eigenvalues --   663.431915815.551366222.87175
           X            0.99999   0.00072   0.00346
           Y           -0.00072   1.00000   0.00158
           Z           -0.00346  -0.00158   0.99999
 This molecule is an asymmetric top.
 Rotational symmetry number  1.
 Warning -- assumption of classical behavior for rotation
           may cause significant error
 Rotational temperatures (Kelvin)      0.13055     0.01489     0.01392
 Rotational constants (GHZ):           2.72031     0.31033     0.29002
 Zero-point vibrational energy     717475.8 (Joules/Mol)
                                  171.48083 (Kcal/Mol)
 Warning -- explicit consideration of  20 degrees of freedom as
           vibrations may cause significant error
 Vibrational temperatures:     38.10    52.57    62.79    83.97   137.20
          (Kelvin)            161.40   181.27   271.71   287.85   338.08
                              341.59   358.41   424.19   467.12   487.07
                              536.64   629.66   703.84   800.31   833.05
                             1084.37  1112.43  1174.25  1247.44  1261.69
                             1278.07  1365.97  1390.29  1412.34  1463.88
                             1489.40  1501.22  1516.71  1557.90  1559.22
                             1565.18  1613.88  1642.76  1654.17  1706.64
                             1773.04  1790.17  1816.87  1873.61  1875.59
                             1894.72  1900.46  1916.44  1979.13  1985.89
                             1997.38  2005.35  2035.24  2063.45  2074.10
                             2118.00  2134.01  2148.96  2155.22  2173.94
                             2177.20  2183.85  2356.58  2382.22  2539.79
                             4211.48  4247.63  4252.14  4261.73  4284.33
                             4319.70  4330.13  4345.03  4356.86  4360.47
                             4373.34  4400.44  4441.91  4450.77  4524.26
                             5010.74  5012.28  5124.39  5131.52

 Zero-point correction=                           0.273272 (Hartree/Particle)
 Thermal correction to Energy=                    0.287724
 Thermal correction to Enthalpy=                  0.288668
 Thermal correction to Gibbs Free Energy=         0.230000
 Sum of electronic and zero-point Energies=           -480.282657
 Sum of electronic and thermal Energies=              -480.268205
 Sum of electronic and thermal Enthalpies=            -480.267261
 Sum of electronic and thermal Free Energies=         -480.325929

                     E (Thermal)             CV                S
                      KCal/Mol        Cal/Mol-Kelvin    Cal/Mol-Kelvin
 Total                  180.549             50.737            123.478
 Electronic               0.000              0.000              0.000
 Translational            0.889              2.981             41.066
 Rotational               0.889              2.981             31.552
 Vibrational            178.772             44.775             50.861
 Vibration     1          0.593              1.985              6.077
 Vibration     2          0.594              1.982              5.438
 Vibration     3          0.595              1.980              5.087
 Vibration     4          0.596              1.974              4.512
 Vibration     5          0.603              1.953              3.547
 Vibration     6          0.607              1.939              3.231
 Vibration     7          0.611              1.927              3.006
 Vibration     8          0.633              1.855              2.239
 Vibration     9          0.638              1.840              2.132
 Vibration    10          0.655              1.787              1.841
 Vibration    11          0.656              1.783              1.822
 Vibration    12          0.662              1.764              1.737
 Vibration    13          0.689              1.683              1.446
 Vibration    14          0.709              1.626              1.286
 Vibration    15          0.719              1.599              1.219
 Vibration    16          0.744              1.528              1.068
 Vibration    17          0.798              1.388              0.834
 Vibration    18          0.845              1.274              0.686
 Vibration    19          0.912              1.126              0.531
 Vibration    20          0.936              1.077              0.487

 Optimization completed.
    -- Stationary point found.
 Normal termination of Gaussian 16 at Tue Jun  1 04:04:54 2021.
