 Gaussian 16, Revision A.03,
 Gaussian 16:  ES64L-G16RevA.03 25-Dec-2016

 -----------------------------
 # opt freq b3lyp/6-31g(2df,p)
 -----------------------------

 -------------------
 Title Card Required
 -------------------
 Symbolic Z-matrix:
 Charge =  0 Multiplicity = 1

 SCF Done:  E(RB3LYP) =  -460.554041325     A.U. after   15 cycles
 SCF Done:  E(RB3LYP) =  -460.558652422     A.U. after   13 cycles
 SCF Done:  E(RB3LYP) =  -460.560582619     A.U. after   13 cycles
 SCF Done:  E(RB3LYP) =  -460.561715380     A.U. after   14 cycles
 SCF Done:  E(RB3LYP) =  -460.563116293     A.U. after   15 cycles
 SCF Done:  E(RB3LYP) =  -460.563723735     A.U. after   14 cycles
 SCF Done:  E(RB3LYP) =  -460.564385642     A.U. after   12 cycles
 SCF Done:  E(RB3LYP) =  -460.564567830     A.U. after   13 cycles
 SCF Done:  E(RB3LYP) =  -460.564586723     A.U. after   11 cycles
 SCF Done:  E(RB3LYP) =  -460.564594056     A.U. after   10 cycles
 SCF Done:  E(RB3LYP) =  -460.564595884     A.U. after    8 cycles
 SCF Done:  E(RB3LYP) =  -460.564596142     A.U. after    7 cycles
 SCF Done:  E(RB3LYP) =  -460.564596214     A.U. after    7 cycles
 Optimization completed.
    -- Stationary point found.
 Normal termination of Gaussian 16 at Tue Jun  1 07:46:36 2021.

 ----------------------------------------------------------------------
 #N Geom=AllCheck Guess=TCheck SCRF=Check GenChk RB3LYP/6-31G(2df,p) Fr
 eq
 ----------------------------------------------------------------------

 Structure from the checkpoint file:  "CCCpNpCdCNdNF.chk"
 -------------------
 Title Card Required
 -------------------
 Charge =  0 Multiplicity = 1

                         Standard orientation:
 ---------------------------------------------------------------------
 Center     Atomic      Atomic             Coordinates (Angstroms)
 Number     Number       Type             X           Y           Z
 ---------------------------------------------------------------------
      1          6           0        3.968023   -0.439015   -0.172694
      2          6           0        2.494191   -0.830168   -0.296964
      3          6           0        1.530256    0.141271    0.431252
      4          7           0        1.565566    1.528441   -0.036706
      5          6           0        0.128759   -0.399780    0.390077
      6          6           0       -0.964907    0.310814    0.103837
      7          7           0       -2.207114   -0.353416    0.095531
      8          7           0       -3.141493    0.386317   -0.174408
      9          9           0       -4.321058   -0.385256   -0.151890
     10          1           0        4.609121   -1.162707   -0.684042
     11          1           0        4.281051   -0.400564    0.877015
     12          1           0        4.164487    0.542200   -0.616908
     13          1           0        2.348668   -1.839162    0.108981
     14          1           0        2.205531   -0.880163   -1.355475
     15          1           0        1.833765    0.160637    1.490653
     16          1           0        1.460185    1.555088   -1.048140
     17          1           0        2.465072    1.947094    0.172701
     18          1           0        0.004748   -1.458004    0.605936
     19          1           0       -0.939747    1.374763   -0.107662
 ---------------------------------------------------------------------

 SCF Done:  E(RB3LYP) =  -460.564596214     A.U. after    1 cycles

 The electronic state is 1-A.
 Alpha  occ. eigenvalues --  -24.68516 -14.45504 -14.39179 -14.32595 -10.23501
 Alpha  occ. eigenvalues --  -10.22608 -10.20998 -10.19742 -10.18984  -1.20836
 Alpha  occ. eigenvalues --   -1.03315  -0.90707  -0.80844  -0.77916  -0.71178
 Alpha  occ. eigenvalues --   -0.64323  -0.59797  -0.56439  -0.53528  -0.49910
 Alpha  occ. eigenvalues --   -0.49045  -0.47161  -0.46327  -0.45225  -0.43471
 Alpha  occ. eigenvalues --   -0.40454  -0.39551  -0.37506  -0.36805  -0.36094
 Alpha  occ. eigenvalues --   -0.35260  -0.34839  -0.28035  -0.26789  -0.25302
 Alpha virt. eigenvalues --   -0.06373   0.03740   0.05964   0.07533   0.09978
 Alpha virt. eigenvalues --    0.11203   0.12320   0.13928   0.14928   0.15534
 Alpha virt. eigenvalues --    0.16925   0.18603   0.19465   0.21455   0.22155

 Mulliken charges:
               1
     1  C   -0.393808
     2  C   -0.172492
     3  C   -0.012102
     4  N   -0.512782
     5  C   -0.058229
     6  C   -0.003315
     7  N   -0.088449
     8  N    0.043004
     9  F   -0.178671
    10  H    0.123092
    11  H    0.118762
    12  H    0.110876
    13  H    0.103232
    14  H    0.100984
    15  H    0.105667
    16  H    0.228918
    17  H    0.235814
    18  H    0.116781
    19  H    0.132716
 Sum of Mulliken charges =  -0.00000

 Dipole moment (field-independent basis, Debye):
    X=              5.0398    Y=              0.0326    Z=             -0.2851  Tot=              5.0479
 Quadrupole moment (field-independent basis, Debye-Ang):
   XX=            -61.1804   YY=            -53.8969   ZZ=            -51.7927
   XY=             -0.0526   XZ=             -0.6177   YZ=             -1.4876

  Exact polarizability: 134.940  -5.013  68.181   6.012  -3.211  54.862
 Approx polarizability: 185.952 -15.444 105.318  16.199  -7.605  86.634

                      1                      2                      3
                      A                      A                      A
 Frequencies --     57.8431                87.3139               119.4772
 Red. masses --      4.0382                 3.1124                 3.9313
 Frc consts  --      0.0080                 0.0140                 0.0331
 IR Inten    --      0.0878                 0.3905                 0.3987

                      4                      5                      6
                      A                      A                      A
 Frequencies --    128.2398               197.9121               230.8145
 Red. masses --      3.0299                 4.0833                 1.2533
 Frc consts  --      0.0294                 0.0942                 0.0393
 IR Inten    --      0.6106                 1.2687                 6.9867

                      7                      8                      9
                      A                      A                      A
 Frequencies --    252.0861               274.9368               298.7811
 Red. masses --      2.5338                 1.9062                 2.0178
 Frc consts  --      0.0949                 0.0849                 0.1061
 IR Inten    --      5.7791                11.1582                17.1162

                     10                     11                     12
                      A                      A                      A
 Frequencies --    332.3771               384.5809               473.2501
 Red. masses --      3.4171                 3.6246                 2.5060
 Frc consts  --      0.2224                 0.3158                 0.3307
 IR Inten    --     13.8800                 4.3858                12.5695

                     13                     14                     15
                      A                      A                      A
 Frequencies --    494.0128               571.9333               690.8172
 Red. masses --      4.3521                 5.2032                 3.4213
 Frc consts  --      0.6258                 1.0028                 0.9620
 IR Inten    --     13.7010                32.6335                35.3905

                     16                     17                     18
                      A                      A                      A
 Frequencies --    782.8234               825.2952               894.5788
 Red. masses --      1.3309                 2.0488                 1.6949
 Frc consts  --      0.4805                 0.8222                 0.7991
 IR Inten    --      0.8076                48.8042                66.4650

                     19                     20                     21
                      A                      A                      A
 Frequencies --    925.4357               940.5946               975.2869
 Red. masses --      1.5108                 4.4164                 3.1435
 Frc consts  --      0.7623                 2.3021                 1.7617
 IR Inten    --     49.2043               135.5236                75.3511

                     22                     23                     24
                      A                      A                      A
 Frequencies --   1012.0201              1025.9527              1064.9038
 Red. masses --      1.2196                 1.3933                 2.4516
 Frc consts  --      0.7360                 0.8641                 1.6380
 IR Inten    --     20.0693                 9.5186                 0.8426

                     25                     26                     27
                      A                      A                      A
 Frequencies --   1085.4702              1152.2199              1175.7755
 Red. masses --      1.6830                 1.5789                 5.1550
 Frc consts  --      1.1684                 1.2350                 4.1988
 IR Inten    --      4.2529                 5.4592                13.7087

                     28                     29                     30
                      A                      A                      A
 Frequencies --   1222.7334              1275.0377              1287.8933
 Red. masses --      2.0153                 1.2991                 1.2944
 Frc consts  --      1.7752                 1.2444                 1.2650
 IR Inten    --     12.9382                 7.1624                 4.9239

                     31                     32                     33
                      A                      A                      A
 Frequencies --   1311.9897              1336.1816              1363.5458
 Red. masses --      1.3375                 1.2914                 1.3810
 Frc consts  --      1.3564                 1.3585                 1.5128
 IR Inten    --      0.9281                 3.1259                 3.0466

                     34                     35                     36
                      A                      A                      A
 Frequencies --   1402.8105              1417.6749              1482.4802
 Red. masses --      1.3012                 1.3663                 1.0761
 Frc consts  --      1.5086                 1.6179                 1.3934
 IR Inten    --     10.2515                 3.0631                 1.0923

                     37                     38                     39
                      A                      A                      A
 Frequencies --   1499.0416              1507.3029              1608.8159
 Red. masses --      1.0468                 1.0537                12.3015
 Frc consts  --      1.3859                 1.4105                18.7595
 IR Inten    --      5.7608                 4.1047                 4.2783

                     40                     41                     42
                      A                      A                      A
 Frequencies --   1653.7772              1716.3255              2978.3019
 Red. masses --      1.1151                 5.8659                 1.0808
 Frc consts  --      1.7969                10.1808                 5.6486
 IR Inten    --     19.5846                29.6721                12.9298

                     43                     44                     45
                      A                      A                      A
 Frequencies --   3016.7259              3032.0678              3053.9535
 Red. masses --      1.0603                 1.0367                 1.1013
 Frc consts  --      5.6854                 5.6156                 6.0519
 IR Inten    --     21.9280                29.1228                16.7283

                     46                     47                     48
                      A                      A                      A
 Frequencies --   3098.3856              3108.9860              3171.7702
 Red. masses --      1.1015                 1.1002                 1.0893
 Frc consts  --      6.2302                 6.2656                 6.4566
 IR Inten    --     40.3493                25.4679                 4.1533

                     49                     50                     51
                      A                      A                      A
 Frequencies --   3191.2122              3488.2105              3580.6166
 Red. masses --      1.0908                 1.0512                 1.0902
 Frc consts  --      6.5448                 7.5360                 8.2350
 IR Inten    --      3.5244                 0.2469                 0.9326

 - Thermochemistry -
 -------------------
 Temperature   298.150 Kelvin.  Pressure   1.00000 Atm.
 Atom     1 has atomic number  6 and mass  12.00000

 Molecular mass:   131.08588 amu.
 Principal axes and moments of inertia in atomic units:
                           1         2         3
     Eigenvalues --   297.881333526.086293725.17179
           X            0.99997  -0.00737  -0.00371
           Y            0.00730   0.99981  -0.01810
           Z            0.00384   0.01808   0.99983
 This molecule is an asymmetric top.
 Rotational symmetry number  1.
 Rotational temperatures (Kelvin)      0.29077     0.02456     0.02325
 Rotational constants (GHZ):           6.05859     0.51183     0.48447
 Zero-point vibrational energy     408288.9 (Joules/Mol)
                                   97.58339 (Kcal/Mol)
 Warning -- explicit consideration of  14 degrees of freedom as
           vibrations may cause significant error
 Vibrational temperatures:     83.22   125.63   171.90   184.51   284.75
          (Kelvin)            332.09   362.70   395.57   429.88   478.22
                              553.33   680.90   710.77   822.88   993.93
                             1126.31  1187.42  1287.10  1331.50  1353.31
                             1403.22  1456.07  1476.12  1532.16  1561.75
                             1657.79  1691.68  1759.24  1834.49  1852.99
                             1887.66  1922.47  1961.84  2018.33  2039.72
                             2132.96  2156.79  2168.67  2314.73  2379.42
                             2469.41  4285.11  4340.40  4362.47  4393.96
                             4457.89  4473.14  4563.47  4591.44  5018.76
                             5151.71

 Zero-point correction=                           0.155509 (Hartree/Particle)
 Thermal correction to Energy=                    0.165820
 Thermal correction to Enthalpy=                  0.166764
 Thermal correction to Gibbs Free Energy=         0.119543
 Sum of electronic and zero-point Energies=           -460.409087
 Sum of electronic and thermal Energies=              -460.398776
 Sum of electronic and thermal Enthalpies=            -460.397832
 Sum of electronic and thermal Free Energies=         -460.445053

                     E (Thermal)             CV                S
                      KCal/Mol        Cal/Mol-Kelvin    Cal/Mol-Kelvin
 Total                  104.054             36.523             99.386
 Electronic               0.000              0.000              0.000
 Translational            0.889              2.981             40.525
 Rotational               0.889              2.981             29.749
 Vibrational            102.276             30.561             29.112
 Vibration     1          0.596              1.974              4.529
 Vibration     2          0.601              1.958              3.719
 Vibration     3          0.609              1.933              3.109
 Vibration     4          0.611              1.925              2.972
 Vibration     5          0.637              1.843              2.152
 Vibration     6          0.653              1.794              1.873
 Vibration     7          0.664              1.759              1.716
 Vibration     8          0.677              1.720              1.565
 Vibration     9          0.692              1.676              1.424
 Vibration    10          0.714              1.611              1.249
 Vibration    11          0.754              1.503              1.021
 Vibration    12          0.830              1.309              0.729
 Vibration    13          0.850              1.263              0.673
 Vibration    14          0.928              1.092              0.501

 Optimization completed.
    -- Stationary point found.
 Normal termination of Gaussian 16 at Tue Jun  1 08:09:10 2021.
