 Gaussian 16, Revision A.03,
 Gaussian 16:  ES64L-G16RevA.03 25-Dec-2016

 -----------------------------
 # opt freq b3lyp/6-31g(2df,p)
 -----------------------------

 -------------------
 Title Card Required
 -------------------
 Symbolic Z-matrix:
 Charge =  0 Multiplicity = 1

 SCF Done:  E(RB3LYP) =  -475.907852206     A.U. after   14 cycles
 SCF Done:  E(RB3LYP) =  -475.915102866     A.U. after   12 cycles
 SCF Done:  E(RB3LYP) =  -475.915998111     A.U. after   13 cycles
 SCF Done:  E(RB3LYP) =  -475.915801058     A.U. after   13 cycles
 SCF Done:  E(RB3LYP) =  -475.918830296     A.U. after   13 cycles
 SCF Done:  E(RB3LYP) =  -475.920750967     A.U. after   14 cycles
 SCF Done:  E(RB3LYP) =  -475.920474273     A.U. after   13 cycles
 SCF Done:  E(RB3LYP) =  -475.924029796     A.U. after   11 cycles
 SCF Done:  E(RB3LYP) =  -475.927296873     A.U. after   13 cycles
 SCF Done:  E(RB3LYP) =  -475.929227681     A.U. after   14 cycles
 SCF Done:  E(RB3LYP) =  -475.931231093     A.U. after   12 cycles
 SCF Done:  E(RB3LYP) =  -475.931235651     A.U. after   11 cycles
 SCF Done:  E(RB3LYP) =  -475.931256535     A.U. after   12 cycles
 SCF Done:  E(RB3LYP) =  -475.931258530     A.U. after   10 cycles
 SCF Done:  E(RB3LYP) =  -475.931258177     A.U. after    9 cycles
 SCF Done:  E(RB3LYP) =  -475.931258770     A.U. after    9 cycles
 SCF Done:  E(RB3LYP) =  -475.931258805     A.U. after    7 cycles
 SCF Done:  E(RB3LYP) =  -475.931258819     A.U. after    6 cycles
 SCF Done:  E(RB3LYP) =  -475.931258828     A.U. after    6 cycles
 Optimization completed.
    -- Stationary point found.
 Normal termination of Gaussian 16 at Mon May 31 13:58:25 2021.

 ----------------------------------------------------------------------
 #N Geom=AllCheck Guess=TCheck SCRF=Check GenChk RB3LYP/6-31G(2df,p) Fr
 eq
 ----------------------------------------------------------------------

 Structure from the checkpoint file:  "CCCpdNpNNCCCdO.chk"
 -------------------
 Title Card Required
 -------------------
 Charge =  0 Multiplicity = 1

                         Standard orientation:
 ---------------------------------------------------------------------
 Center     Atomic      Atomic             Coordinates (Angstroms)
 Number     Number       Type             X           Y           Z
 ---------------------------------------------------------------------
      1          6           0       -4.280432    0.754027    0.285811
      2          6           0       -3.238001   -0.352518    0.437049
      3          6           0       -1.858187   -0.008294   -0.104772
      4          7           0       -1.474282    1.087934   -0.639168
      5          7           0       -0.942935   -1.037749    0.047485
      6          7           0        0.303737   -0.950137   -0.614600
      7          6           0        1.328247   -0.397218    0.283412
      8          6           0        2.638882   -0.223501   -0.491756
      9          6           0        3.797912    0.089567    0.425068
     10          8           0        4.547840    1.022882    0.303053
     11          1           0       -5.243000    0.425805    0.687243
     12          1           0       -4.431159    1.021542   -0.764597
     13          1           0       -3.986094    1.657598    0.828635
     14          1           0       -3.588333   -1.262411   -0.069113
     15          1           0       -3.127346   -0.626016    1.493562
     16          1           0       -2.224068    1.773508   -0.654736
     17          1           0       -1.323955   -1.972910    0.022252
     18          1           0        0.167102   -0.278729   -1.372248
     19          1           0        1.470716   -1.109457    1.104610
     20          1           0        1.017308    0.561119    0.722113
     21          1           0        2.564442    0.564787   -1.246713
     22          1           0        2.861304   -1.171873   -1.002086
     23          1           0        3.924204   -0.638741    1.261767
 ---------------------------------------------------------------------

 SCF Done:  E(RB3LYP) =  -475.931258828     A.U. after    1 cycles

 The electronic state is 1-A.
 Alpha  occ. eigenvalues --  -19.13535 -14.36432 -14.34584 -14.29381 -10.26832
 Alpha  occ. eigenvalues --  -10.25409 -10.21129 -10.20621 -10.19275 -10.19087
 Alpha  occ. eigenvalues --   -1.04225  -0.99784  -0.89106  -0.82070  -0.77977
 Alpha  occ. eigenvalues --   -0.74983  -0.65954  -0.62503  -0.58954  -0.57324
 Alpha  occ. eigenvalues --   -0.51286  -0.49112  -0.47701  -0.47373  -0.45697
 Alpha  occ. eigenvalues --   -0.44997  -0.43459  -0.41133  -0.40285  -0.38740
 Alpha  occ. eigenvalues --   -0.37902  -0.37722  -0.35911  -0.35188  -0.32631
 Alpha  occ. eigenvalues --   -0.26623  -0.26283  -0.24758  -0.22590
 Alpha virt. eigenvalues --   -0.01759   0.02773   0.07336   0.09584   0.11260
 Alpha virt. eigenvalues --    0.11560   0.13092   0.13728   0.14336   0.14890
 Alpha virt. eigenvalues --    0.15379   0.16504   0.17659   0.18339   0.18679

 Mulliken charges:
               1
     1  C   -0.401968
     2  C   -0.263595
     3  C    0.364993
     4  N   -0.529846
     5  N   -0.290583
     6  N   -0.290858
     7  C   -0.103059
     8  C   -0.290001
     9  C    0.159863
    10  O   -0.236040
    11  H    0.121753
    12  H    0.130867
    13  H    0.131892
    14  H    0.115768
    15  H    0.130138
    16  H    0.219311
    17  H    0.244732
    18  H    0.237931
    19  H    0.103739
    20  H    0.119755
    21  H    0.127179
    22  H    0.128730
    23  H    0.069299
 Sum of Mulliken charges =   0.00000

 Dipole moment (field-independent basis, Debye):
    X=             -4.3252    Y=             -2.4951    Z=              0.6420  Tot=              5.0344
 Quadrupole moment (field-independent basis, Debye-Ang):
   XX=            -65.1520   YY=            -61.2597   ZZ=            -60.6313
   XY=             -6.5490   XZ=             -1.5608   YZ=             -0.7113

  Exact polarizability: 116.942   0.922  84.986  -0.831  -6.521  70.810
 Approx polarizability: 133.953   8.875 142.343  -2.480 -14.709 109.523

                      1                      2                      3
                      A                      A                      A
 Frequencies --     31.5707                40.6242                57.7987
 Red. masses --      3.0175                 3.4309                 3.9055
 Frc consts  --      0.0018                 0.0033                 0.0077
 IR Inten    --      0.2374                 0.8204                 0.8850

                      4                      5                      6
                      A                      A                      A
 Frequencies --     71.7639                88.1196               117.4350
 Red. masses --      2.1734                 3.4458                 2.6393
 Frc consts  --      0.0066                 0.0158                 0.0214
 IR Inten    --      1.7163                 6.1441                 6.6548

                      7                      8                      9
                      A                      A                      A
 Frequencies --    210.4122               228.9743               249.4830
 Red. masses --      2.6938                 3.0813                 1.1585
 Frc consts  --      0.0703                 0.0952                 0.0425
 IR Inten    --      1.9452                 0.4395                 1.6733

                     10                     11                     12
                      A                      A                      A
 Frequencies --    288.6533               345.8859               398.2694
 Red. masses --      4.3186                 3.3113                 3.1323
 Frc consts  --      0.2120                 0.2334                 0.2927
 IR Inten    --      4.0683                24.2354                 4.8648

                     13                     14                     15
                      A                      A                      A
 Frequencies --    480.6940               540.6547               553.5107
 Red. masses --      3.5234                 1.5916                 2.4448
 Frc consts  --      0.4797                 0.2741                 0.4413
 IR Inten    --     14.1095                55.2673                16.7090

                     16                     17                     18
                      A                      A                      A
 Frequencies --    580.3550               664.9882               782.8026
 Red. masses --      2.5981                 2.4766                 1.2798
 Frc consts  --      0.5156                 0.6453                 0.4621
 IR Inten    --     12.8745                58.7503                 2.6203

                     19                     20                     21
                      A                      A                      A
 Frequencies --    799.5742               835.3247               843.5670
 Red. masses --      1.3764                 1.3437                 1.3429
 Frc consts  --      0.5185                 0.5524                 0.5630
 IR Inten    --      1.8394                10.7175                86.7887

                     22                     23                     24
                      A                      A                      A
 Frequencies --    869.3898               907.7228              1012.7297
 Red. masses --      1.4450                 2.9956                 2.6944
 Frc consts  --      0.6435                 1.4543                 1.6282
 IR Inten    --      6.8244                25.8146                18.2335

                     25                     26                     27
                      A                      A                      A
 Frequencies --   1026.0745              1039.9413              1065.2049
 Red. masses --      2.0895                 2.0516                 2.4779
 Frc consts  --      1.2961                 1.3073                 1.6565
 IR Inten    --     15.6595                14.6781                11.0926

                     28                     29                     30
                      A                      A                      A
 Frequencies --   1105.8981              1110.6824              1116.1067
 Red. masses --      1.7252                 2.1114                 2.0077
 Frc consts  --      1.2431                 1.5346                 1.4735
 IR Inten    --      4.6955                 1.1172                32.1979

                     31                     32                     33
                      A                      A                      A
 Frequencies --   1162.9855              1175.3379              1236.2012
 Red. masses --      2.5149                 2.3185                 1.4138
 Frc consts  --      2.0041                 1.8871                 1.2729
 IR Inten    --     23.6226                35.4887                16.6072

                     34                     35                     36
                      A                      A                      A
 Frequencies --   1278.6555              1290.2792              1305.6824
 Red. masses --      1.4238                 1.1715                 1.2633
 Frc consts  --      1.3716                 1.1492                 1.2690
 IR Inten    --      1.0547                 0.4434                 9.8216

                     37                     38                     39
                      A                      A                      A
 Frequencies --   1318.2831              1391.2576              1395.1388
 Red. masses --      1.3717                 1.4015                 1.6139
 Frc consts  --      1.4045                 1.5983                 1.8508
 IR Inten    --     55.1501                16.1032                24.0112

                     40                     41                     42
                      A                      A                      A
 Frequencies --   1410.9304              1431.2136              1466.6083
 Red. masses --      1.2660                 1.1963                 1.0882
 Frc consts  --      1.4849                 1.4438                 1.3791
 IR Inten    --      8.1156                 7.9843                 4.0071

                     43                     44                     45
                      A                      A                      A
 Frequencies --   1471.6378              1497.4083              1499.9322
 Red. masses --      1.1058                 1.5733                 1.0472
 Frc consts  --      1.4110                 2.0785                 1.3880
 IR Inten    --      7.7996                97.9867                 7.6878

                     46                     47                     48
                      A                      A                      A
 Frequencies --   1508.2381              1511.7999              1559.1820
 Red. masses --      1.0545                 1.0906                 1.1162
 Frc consts  --      1.4132                 1.4686                 1.5987
 IR Inten    --      9.9138                 0.7665                 9.5648

                     49                     50                     51
                      A                      A                      A
 Frequencies --   1706.9868              1837.7127              2845.9477
 Red. masses --      7.0384                10.1338                 1.0813
 Frc consts  --     12.0833                20.1640                 5.1600
 IR Inten    --    108.2035               196.9211               115.4780

                     52                     53                     54
                      A                      A                      A
 Frequencies --   3006.7434              3018.7005              3018.7907
 Red. masses --      1.0621                 1.0622                 1.0630
 Frc consts  --      5.6573                 5.7027                 5.7077
 IR Inten    --     17.0543                18.2058                22.4342

                     55                     56                     57
                      A                      A                      A
 Frequencies --   3041.7785              3054.7150              3056.9779
 Red. masses --      1.0356                 1.0967                 1.0998
 Frc consts  --      5.6453                 6.0297                 6.0557
 IR Inten    --     17.0638                 7.8451                19.2178

                     58                     59                     60
                      A                      A                      A
 Frequencies --   3098.9678              3111.4526              3115.6166
 Red. masses --      1.0984                 1.1024                 1.1009
 Frc consts  --      6.2153                 6.2880                 6.2963
 IR Inten    --     19.4486                24.1358                22.5435

                     61                     62                     63
                      A                      A                      A
 Frequencies --   3434.7604              3532.2409              3585.4224
 Red. masses --      1.0719                 1.0746                 1.0768
 Frc consts  --      7.4508                 7.8993                 8.1558
 IR Inten    --     14.6288                 2.0099                17.0134

 - Thermochemistry -
 -------------------
 Temperature   298.150 Kelvin.  Pressure   1.00000 Atm.
 Atom     1 has atomic number  6 and mass  12.00000

 Molecular mass:   143.10586 amu.
 Principal axes and moments of inertia in atomic units:
                           1         2         3
     Eigenvalues --   438.531324285.400564480.17408
           X            0.99991  -0.01271  -0.00448
           Y            0.01255   0.99934  -0.03421
           Z            0.00491   0.03415   0.99940
 This molecule is an asymmetric top.
 Rotational symmetry number  1.
 Warning -- assumption of classical behavior for rotation
           may cause significant error
 Rotational temperatures (Kelvin)      0.19751     0.02021     0.01933
 Rotational constants (GHZ):           4.11542     0.42114     0.40283
 Zero-point vibrational energy     519429.3 (Joules/Mol)
                                  124.14658 (Kcal/Mol)
 Warning -- explicit consideration of  16 degrees of freedom as
           vibrations may cause significant error
 Vibrational temperatures:     45.42    58.45    83.16   103.25   126.78
          (Kelvin)            168.96   302.74   329.44   358.95   415.31
                              497.65   573.02   691.61   777.88   796.38
                              835.00   956.77  1126.28  1150.41  1201.85
                             1213.70  1250.86  1306.01  1457.09  1476.29
                             1496.24  1532.59  1591.14  1598.02  1605.83
                             1673.28  1691.05  1778.62  1839.70  1856.42
                             1878.59  1896.72  2001.71  2007.29  2030.01
                             2059.20  2110.12  2117.36  2154.44  2158.07
                             2170.02  2175.14  2243.32  2455.97  2644.06
                             4094.68  4326.03  4343.24  4343.37  4376.44
                             4395.05  4398.31  4458.72  4476.69  4482.68
                             4941.85  5082.11  5158.62

 Zero-point correction=                           0.197840 (Hartree/Particle)
 Thermal correction to Energy=                    0.209825
 Thermal correction to Enthalpy=                  0.210769
 Thermal correction to Gibbs Free Energy=         0.157719
 Sum of electronic and zero-point Energies=           -475.733419
 Sum of electronic and thermal Energies=              -475.721434
 Sum of electronic and thermal Enthalpies=            -475.720490
 Sum of electronic and thermal Free Energies=         -475.773540

                     E (Thermal)             CV                S
                      KCal/Mol        Cal/Mol-Kelvin    Cal/Mol-Kelvin
 Total                  131.667             41.393            111.654
 Electronic               0.000              0.000              0.000
 Translational            0.889              2.981             40.786
 Rotational               0.889              2.981             30.510
 Vibrational            129.890             35.431             40.357
 Vibration     1          0.594              1.983              5.728
 Vibration     2          0.594              1.981              5.228
 Vibration     3          0.596              1.974              4.531
 Vibration     4          0.598              1.967              4.104
 Vibration     5          0.601              1.958              3.701
 Vibration     6          0.608              1.935              3.142
 Vibration     7          0.643              1.825              2.040
 Vibration     8          0.652              1.797              1.887
 Vibration     9          0.662              1.764              1.734
 Vibration    10          0.685              1.695              1.482
 Vibration    11          0.724              1.584              1.185
 Vibration    12          0.765              1.474              0.969
 Vibration    13          0.837              1.293              0.708
 Vibration    14          0.896              1.160              0.564
 Vibration    15          0.909              1.132              0.537
 Vibration    16          0.937              1.074              0.485

 Optimization completed.
    -- Stationary point found.
 Normal termination of Gaussian 16 at Mon May 31 14:31:19 2021.
