 Gaussian 16, Revision A.03,
 Gaussian 16:  ES64L-G16RevA.03 25-Dec-2016

 -----------------------------
 # opt freq b3lyp/6-31g(2df,p)
 -----------------------------

 -------------------
 Title Card Required
 -------------------
 Symbolic Z-matrix:
 Charge =  0 Multiplicity = 1

 SCF Done:  E(RB3LYP) =  -420.544007132     A.U. after   13 cycles
 SCF Done:  E(RB3LYP) =  -420.548812722     A.U. after   12 cycles
 SCF Done:  E(RB3LYP) =  -420.549080624     A.U. after   10 cycles
 SCF Done:  E(RB3LYP) =  -420.549142825     A.U. after    9 cycles
 SCF Done:  E(RB3LYP) =  -420.549146755     A.U. after    8 cycles
 Optimization completed.
    -- Stationary point found.
 Normal termination of Gaussian 16 at Tue Jun  1 04:34:29 2021.

 ----------------------------------------------------------------------
 #N Geom=AllCheck Guess=TCheck SCRF=Check GenChk RB3LYP/6-31G(2df,p) Fr
 eq
 ----------------------------------------------------------------------

 Structure from the checkpoint file:  "CCCpdNpCCCdNO.chk"
 -------------------
 Title Card Required
 -------------------
 Charge =  0 Multiplicity = 1

                         Standard orientation:
 ---------------------------------------------------------------------
 Center     Atomic      Atomic             Coordinates (Angstroms)
 Number     Number       Type             X           Y           Z
 ---------------------------------------------------------------------
      1          6           0        4.181137   -0.205185    0.000003
      2          6           0        2.787006   -0.830280    0.000000
      3          6           0        1.623317    0.150438   -0.000003
      4          7           0        1.709735    1.419426   -0.000001
      5          6           0        0.253169   -0.497147   -0.000002
      6          6           0       -0.920214    0.484376   -0.000002
      7          6           0       -2.246327   -0.232621   -0.000002
      8          7           0       -3.337010    0.420578    0.000003
      9          8           0       -4.446317   -0.438046    0.000002
     10          1           0        4.948635   -0.984039    0.000005
     11          1           0        4.342819    0.417642    0.885868
     12          1           0        4.342823    0.417642   -0.885861
     13          1           0        2.671872   -1.490478    0.870621
     14          1           0        2.671876   -1.490478   -0.870621
     15          1           0        2.685239    1.724495    0.000001
     16          1           0        0.188578   -1.165452    0.871238
     17          1           0        0.188577   -1.165453   -0.871242
     18          1           0       -0.847908    1.144683   -0.869622
     19          1           0       -0.847908    1.144683    0.869619
     20          1           0       -2.267211   -1.326993   -0.000006
     21          1           0       -5.184461    0.180600    0.000006
 ---------------------------------------------------------------------

 SCF Done:  E(RB3LYP) =  -420.549146755     A.U. after    1 cycles

 The electronic state is 1-A.
 Alpha  occ. eigenvalues --  -19.16708 -14.36600 -14.30700 -10.23203 -10.20887
 Alpha  occ. eigenvalues --  -10.19865 -10.19255 -10.18875 -10.18441  -1.06702
 Alpha  occ. eigenvalues --   -0.90511  -0.85609  -0.77648  -0.76876  -0.68234
 Alpha  occ. eigenvalues --   -0.62578  -0.55946  -0.53892  -0.51520  -0.47753
 Alpha  occ. eigenvalues --   -0.47463  -0.45108  -0.44908  -0.42105  -0.39993
 Alpha  occ. eigenvalues --   -0.39905  -0.37276  -0.37102  -0.35744  -0.34940
 Alpha  occ. eigenvalues --   -0.34825  -0.29850  -0.26699  -0.25578  -0.24220
 Alpha virt. eigenvalues --    0.00368   0.01406   0.07503   0.08632   0.10564
 Alpha virt. eigenvalues --    0.12237   0.13279   0.13629   0.14958   0.15561
 Alpha virt. eigenvalues --    0.16383   0.18301   0.18688   0.19009   0.20734

 Mulliken charges:
               1
     1  C   -0.408471
     2  C   -0.239209
     3  C    0.297734
     4  N   -0.454142
     5  C   -0.263028
     6  C   -0.240190
     7  C    0.070263
     8  N   -0.108548
     9  O   -0.391558
    10  H    0.120837
    11  H    0.128062
    12  H    0.128062
    13  H    0.117869
    14  H    0.117869
    15  H    0.215611
    16  H    0.114891
    17  H    0.114891
    18  H    0.139152
    19  H    0.139152
    20  H    0.095413
    21  H    0.305342
 Sum of Mulliken charges =  -0.00000

 Dipole moment (field-independent basis, Debye):
    X=              2.0675    Y=             -1.7678    Z=              0.0000  Tot=              2.7203
 Quadrupole moment (field-independent basis, Debye-Ang):
   XX=            -46.2578   YY=            -57.7472   ZZ=            -54.7191
   XY=             -3.2202   XZ=             -0.0000   YZ=              0.0000

  Exact polarizability: 119.003   0.174  79.138  -0.000   0.000  56.566
 Approx polarizability: 140.820  -0.798 130.235  -0.000   0.000  88.927

 ******    1 imaginary frequencies (negative Signs) ******

                      1                      2                      3
                      A                      A                      A
 Frequencies --   -122.6077                45.8072                57.8586
 Red. masses --      2.4480                 2.7270                 2.3369
 Frc consts  --      0.0217                 0.0034                 0.0046
 IR Inten    --      0.1111                 0.2334                 0.4494

                      4                      5                      6
                      A                      A                      A
 Frequencies --     87.2632                90.3919               223.4212
 Red. masses --      2.5392                 4.3326                 4.3419
 Frc consts  --      0.0114                 0.0209                 0.1277
 IR Inten    --      0.0100                 0.8794                 0.9948

                      7                      8                      9
                      A                      A                      A
 Frequencies --    247.8437               278.5406               283.7364
 Red. masses --      1.0874                 5.3611                 3.6793
 Frc consts  --      0.0394                 0.2451                 0.1745
 IR Inten    --      0.3508                 0.0434                 0.5049

                     10                     11                     12
                      A                      A                      A
 Frequencies --    334.7932               409.2272               456.1235
 Red. masses --      3.6910                 1.0881                 3.9098
 Frc consts  --      0.2438                 0.1074                 0.4793
 IR Inten    --      8.3835               117.0087                 3.6434

                     13                     14                     15
                      A                      A                      A
 Frequencies --    466.1598               566.3149               630.5166
 Red. masses --      1.9569                 4.0374                 2.9709
 Frc consts  --      0.2505                 0.7629                 0.6959
 IR Inten    --      2.1971                30.6816                 0.9298

                     16                     17                     18
                      A                      A                      A
 Frequencies --    696.0494               780.8880               837.6841
 Red. masses --      1.1758                 1.2868                 3.4987
 Frc consts  --      0.3356                 0.4623                 1.4465
 IR Inten    --      6.9637                 1.0277                 4.0013

                     19                     20                     21
                      A                      A                      A
 Frequencies --    889.3962               939.2979               962.6450
 Red. masses --      1.2370                 1.2614                 4.8981
 Frc consts  --      0.5765                 0.6557                 2.6743
 IR Inten    --     16.7479                23.9597                34.2583

                     22                     23                     24
                      A                      A                      A
 Frequencies --    993.6954              1028.1082              1056.7237
 Red. masses --      4.3715                 1.6119                 1.5882
 Frc consts  --      2.5432                 1.0039                 1.0449
 IR Inten    --    125.3612                 6.6565                 3.9144

                     25                     26                     27
                      A                      A                      A
 Frequencies --   1078.3128              1100.2609              1109.9807
 Red. masses --      2.2708                 2.2012                 3.4719
 Frc consts  --      1.5557                 1.5700                 2.5203
 IR Inten    --     11.8052                35.8368                 8.5487

                     28                     29                     30
                      A                      A                      A
 Frequencies --   1110.2554              1186.7717              1251.6185
 Red. masses --      1.5701                 1.2498                 1.2878
 Frc consts  --      1.1403                 1.0371                 1.1887
 IR Inten    --      3.4529                 1.3452                24.9053

                     31                     32                     33
                      A                      A                      A
 Frequencies --   1285.6441              1295.7647              1318.1866
 Red. masses --      1.1595                 1.1911                 1.1180
 Frc consts  --      1.1292                 1.1783                 1.1446
 IR Inten    --      0.0144                57.4911                 0.9115

                     34                     35                     36
                      A                      A                      A
 Frequencies --   1319.0713              1378.0297              1409.3297
 Red. masses --      1.3470                 1.5365                 1.2499
 Frc consts  --      1.3809                 1.7191                 1.4627
 IR Inten    --     32.2070                 6.1326                 3.5259

                     37                     38                     39
                      A                      A                      A
 Frequencies --   1422.1420              1443.1441              1458.5978
 Red. masses --      2.0457                 1.4081                 1.0876
 Frc consts  --      2.4376                 1.7278                 1.3632
 IR Inten    --     36.4653                31.7421                 1.4422

                     40                     41                     42
                      A                      A                      A
 Frequencies --   1467.4312              1473.9690              1500.8023
 Red. masses --      1.0876                 1.0975                 1.0381
 Frc consts  --      1.3799                 1.4048                 1.3776
 IR Inten    --      3.0077                12.9492                 5.4621

                     43                     44                     45
                      A                      A                      A
 Frequencies --   1507.1478              1727.2249              1730.9243
 Red. masses --      1.0501                 7.6935                 7.9130
 Frc consts  --      1.4054                13.5230                13.9685
 IR Inten    --      6.3525                21.3274                29.1210

                     46                     47                     48
                      A                      A                      A
 Frequencies --   3001.4090              3016.7555              3025.1455
 Red. masses --      1.0597                 1.0606                 1.0986
 Frc consts  --      5.6247                 5.6871                 5.9238
 IR Inten    --      9.6385                26.1159                 6.6379

                     49                     50                     51
                      A                      A                      A
 Frequencies --   3037.7970              3041.7704              3061.2987
 Red. masses --      1.0359                 1.0991                 1.0608
 Frc consts  --      5.6323                 5.9916                 5.8575
 IR Inten    --     18.4718                16.2531                 3.7717

                     52                     53                     54
                      A                      A                      A
 Frequencies --   3074.3130              3093.8581              3104.7063
 Red. masses --      1.0866                 1.1017                 1.1020
 Frc consts  --      6.0508                 6.2133                 6.2586
 IR Inten    --     21.4007                 9.9871                27.1977

                     55                     56                     57
                      A                      A                      A
 Frequencies --   3112.6078              3448.4775              3818.3766
 Red. masses --      1.1004                 1.0735                 1.0676
 Frc consts  --      6.2814                 7.5215                 9.1708
 IR Inten    --     22.2132                 2.4496                82.8256

 - Thermochemistry -
 -------------------
 Temperature   298.150 Kelvin.  Pressure   1.00000 Atm.
 Atom     1 has atomic number  6 and mass  12.00000

 Molecular mass:   128.09496 amu.
 Principal axes and moments of inertia in atomic units:
                           1         2         3
     Eigenvalues --   254.663563721.898033932.53802
           X            0.99999  -0.00525   0.00000
           Y            0.00525   0.99999   0.00000
           Z           -0.00000  -0.00000   1.00000
 This molecule is an asymmetric top.
 Rotational symmetry number  1.
 Rotational temperatures (Kelvin)      0.34011     0.02327     0.02202
 Rotational constants (GHZ):           7.08677     0.48490     0.45893
    1 imaginary frequencies ignored.
 Zero-point vibrational energy     471170.8 (Joules/Mol)
                                  112.61253 (Kcal/Mol)
 Warning -- explicit consideration of  13 degrees of freedom as
           vibrations may cause significant error
 Vibrational temperatures:     65.91    83.25   125.55   130.05   321.45
          (Kelvin)            356.59   400.76   408.23   481.69   588.79
                              656.26   670.70   814.80   907.17  1001.46
                             1123.52  1205.24  1279.64  1351.44  1385.03
                             1429.71  1479.22  1520.39  1551.45  1583.03
                             1597.01  1597.41  1707.50  1800.80  1849.76
                             1864.32  1896.58  1897.85  1982.68  2027.71
                             2046.15  2076.36  2098.60  2111.31  2120.71
                             2159.32  2168.45  2485.09  2490.41  4318.36
                             4340.44  4352.51  4370.71  4376.43  4404.53
                             4423.25  4451.37  4466.98  4478.35  4961.59
                             5493.79

 Zero-point correction=                           0.179459 (Hartree/Particle)
 Thermal correction to Energy=                    0.189627
 Thermal correction to Enthalpy=                  0.190571
 Thermal correction to Gibbs Free Energy=         0.142916
 Sum of electronic and zero-point Energies=           -420.369687
 Sum of electronic and thermal Energies=              -420.359520
 Sum of electronic and thermal Enthalpies=            -420.358575
 Sum of electronic and thermal Free Energies=         -420.406231

                     E (Thermal)             CV                S
                      KCal/Mol        Cal/Mol-Kelvin    Cal/Mol-Kelvin
 Total                  118.993             36.129            100.299
 Electronic               0.000              0.000              0.000
 Translational            0.889              2.981             40.456
 Rotational               0.889              2.981             29.701
 Vibrational            117.215             30.167             30.142
 Vibration     1          0.595              1.979              4.991
 Vibration     2          0.596              1.974              4.529
 Vibration     3          0.601              1.958              3.721
 Vibration     4          0.602              1.956              3.652
 Vibration     5          0.649              1.805              1.931
 Vibration     6          0.661              1.766              1.746
 Vibration     7          0.679              1.713              1.543
 Vibration     8          0.682              1.704              1.511
 Vibration     9          0.716              1.606              1.237
 Vibration    10          0.774              1.450              0.929
 Vibration    11          0.814              1.347              0.777
 Vibration    12          0.824              1.325              0.748
 Vibration    13          0.922              1.104              0.511

                           ! Non-Optimized Parameters !
 Normal termination of Gaussian 16 at Tue Jun  1 04:59:00 2021.
