 Gaussian 16, Revision A.03,
 Gaussian 16:  ES64L-G16RevA.03 25-Dec-2016

 -----------------------------
 # opt freq b3lyp/6-31g(2df,p)
 -----------------------------

 -------------------
 Title Card Required
 -------------------
 Symbolic Z-matrix:
 Charge =  0 Multiplicity = 1

 SCF Done:  E(RB3LYP) =  -416.690698731     A.U. after   14 cycles
 SCF Done:  E(RB3LYP) =  -416.718554341     A.U. after   12 cycles
 SCF Done:  E(RB3LYP) =  -416.720802208     A.U. after   12 cycles
 SCF Done:  E(RB3LYP) =  -416.721043807     A.U. after   11 cycles
 SCF Done:  E(RB3LYP) =  -416.721101524     A.U. after   10 cycles
 SCF Done:  E(RB3LYP) =  -416.721117670     A.U. after   10 cycles
 SCF Done:  E(RB3LYP) =  -416.721121842     A.U. after    9 cycles
 SCF Done:  E(RB3LYP) =  -416.721125763     A.U. after    9 cycles
 SCF Done:  E(RB3LYP) =  -416.721129588     A.U. after    9 cycles
 SCF Done:  E(RB3LYP) =  -416.721133269     A.U. after    9 cycles
 SCF Done:  E(RB3LYP) =  -416.721136654     A.U. after   10 cycles
 SCF Done:  E(RB3LYP) =  -416.721137703     A.U. after    9 cycles
 SCF Done:  E(RB3LYP) =  -416.721137855     A.U. after    7 cycles
 SCF Done:  E(RB3LYP) =  -416.721137886     A.U. after    6 cycles
 Optimization completed.
    -- Stationary point found.
 Normal termination of Gaussian 16 at Tue Jun  1 01:13:24 2021.

 ----------------------------------------------------------------------
 #N Geom=AllCheck Guess=TCheck SCRF=Check GenChk RB3LYP/6-31G(2df,p) Fr
 eq
 ----------------------------------------------------------------------

 Structure from the checkpoint file:  "CCCpCtNpNCNN.chk"
 -------------------
 Title Card Required
 -------------------
 Charge =  0 Multiplicity = 1

                         Standard orientation:
 ---------------------------------------------------------------------
 Center     Atomic      Atomic             Coordinates (Angstroms)
 Number     Number       Type             X           Y           Z
 ---------------------------------------------------------------------
      1          6           0        3.459490   -0.663496    0.284160
      2          6           0        2.093347   -1.016730   -0.304888
      3          6           0        0.935706   -0.162912    0.251970
      4          6           0        1.163319    1.265568   -0.037662
      5          7           0        1.360923    2.385416   -0.242716
      6          7           0       -0.331244   -0.585145   -0.340833
      7          6           0       -1.510679   -0.009848    0.287931
      8          7           0       -2.703201   -0.390505   -0.456382
      9          7           0       -3.917644   -0.013071    0.186696
     10          1           0        4.234046   -1.312407   -0.133382
     11          1           0        3.470342   -0.788597    1.372272
     12          1           0        3.732247    0.372088    0.061494
     13          1           0        1.853375   -2.064611   -0.084875
     14          1           0        2.098988   -0.912133   -1.394289
     15          1           0        0.940791   -0.253891    1.355765
     16          1           0       -0.373395   -1.598881   -0.288501
     17          1           0       -1.420479    1.082700    0.253438
     18          1           0       -1.593355   -0.290872    1.366691
     19          1           0       -2.734239   -1.399285   -0.570289
     20          1           0       -4.101470    0.955221   -0.060213
     21          1           0       -3.815789   -0.041681    1.205472
 ---------------------------------------------------------------------

 SCF Done:  E(RB3LYP) =  -416.721137886     A.U. after    1 cycles

 The electronic state is 1-A.
 Alpha  occ. eigenvalues --  -14.34437 -14.34139 -14.33961 -14.32998 -10.26578
 Alpha  occ. eigenvalues --  -10.24226 -10.21920 -10.20985 -10.19037  -0.97428
 Alpha  occ. eigenvalues --   -0.93338  -0.89707  -0.81074  -0.76527  -0.70731
 Alpha  occ. eigenvalues --   -0.65566  -0.62561  -0.53164  -0.51641  -0.49993
 Alpha  occ. eigenvalues --   -0.49339  -0.46528  -0.44811  -0.43929  -0.42955
 Alpha  occ. eigenvalues --   -0.39745  -0.37907  -0.37474  -0.36333  -0.35363
 Alpha  occ. eigenvalues --   -0.33205  -0.32368  -0.25826  -0.25451  -0.23744
 Alpha virt. eigenvalues --    0.02412   0.03089   0.07485   0.07680   0.08940
 Alpha virt. eigenvalues --    0.11279   0.11880   0.12947   0.14642   0.15368
 Alpha virt. eigenvalues --    0.15684   0.16700   0.18038   0.18285   0.18854

 Mulliken charges:
               1
     1  C   -0.399291
     2  C   -0.200300
     3  C   -0.087605
     4  C    0.317705
     5  N   -0.336641
     6  N   -0.311361
     7  C   -0.068499
     8  N   -0.275086
     9  N   -0.468149
    10  H    0.125115
    11  H    0.120479
    12  H    0.148690
    13  H    0.101484
    14  H    0.133964
    15  H    0.103672
    16  H    0.218795
    17  H    0.133188
    18  H    0.054703
    19  H    0.225195
    20  H    0.248234
    21  H    0.215709
 Sum of Mulliken charges =  -0.00000

 Dipole moment (field-independent basis, Debye):
    X=              0.4984    Y=             -3.7267    Z=              2.4745  Tot=              4.5011
 Quadrupole moment (field-independent basis, Debye-Ang):
   XX=            -58.1827   YY=            -59.4668   ZZ=            -56.1924
   XY=             -8.2338   XZ=             -4.0424   YZ=              1.3961

  Exact polarizability:  96.865  -1.382  82.119  -1.625  -0.244  64.307
 Approx polarizability: 111.344   2.019 130.768  -2.070  -2.485 100.423

                      1                      2                      3
                      A                      A                      A
 Frequencies --     42.3358                53.1617                87.7780
 Red. masses --      2.1594                 3.7139                 2.9871
 Frc consts  --      0.0023                 0.0062                 0.0136
 IR Inten    --      5.6452                 0.9928                 3.3201

                      4                      5                      6
                      A                      A                      A
 Frequencies --    112.6816               139.0369               165.2228
 Red. masses --      2.4956                 3.1568                 2.5888
 Frc consts  --      0.0187                 0.0360                 0.0416
 IR Inten    --      1.4170                 3.0261                 3.2098

                      7                      8                      9
                      A                      A                      A
 Frequencies --    230.7113               264.6907               283.2688
 Red. masses --      1.4968                 3.1103                 2.9001
 Frc consts  --      0.0469                 0.1284                 0.1371
 IR Inten    --      0.5167                 0.8791                 1.7979

                     10                     11                     12
                      A                      A                      A
 Frequencies --    322.8080               364.7874               407.7714
 Red. masses --      4.3576                 1.1447                 4.2065
 Frc consts  --      0.2675                 0.0897                 0.4121
 IR Inten    --      1.0444                27.8193                 8.2199

                     13                     14                     15
                      A                      A                      A
 Frequencies --    499.6764               564.4376               629.8093
 Red. masses --      3.9383                 3.8133                 4.2871
 Frc consts  --      0.5793                 0.7158                 1.0019
 IR Inten    --      4.3895                 0.7000                 4.4356

                     16                     17                     18
                      A                      A                      A
 Frequencies --    749.1336               772.6469               795.1148
 Red. masses --      1.6540                 1.3968                 1.5568
 Frc consts  --      0.5469                 0.4913                 0.5799
 IR Inten    --     40.7037                17.4196               107.2492

                     19                     20                     21
                      A                      A                      A
 Frequencies --    864.8050               946.4662               952.9179
 Red. masses --      1.6660                 2.1561                 1.4575
 Frc consts  --      0.7341                 1.1379                 0.7798
 IR Inten    --     16.7030                15.1553                71.5239

                     22                     23                     24
                      A                      A                      A
 Frequencies --   1033.8701              1055.3239              1082.4513
 Red. masses --      2.6297                 2.2585                 1.8554
 Frc consts  --      1.6561                 1.4820                 1.2808
 IR Inten    --      8.8733                 1.5254                19.8670

                     25                     26                     27
                      A                      A                      A
 Frequencies --   1117.2792              1124.7456              1156.7042
 Red. masses --      2.1800                 1.8908                 3.4722
 Frc consts  --      1.6034                 1.4093                 2.7372
 IR Inten    --      2.2431                 2.6132               101.4672

                     28                     29                     30
                      A                      A                      A
 Frequencies --   1161.2430              1213.2292              1244.6469
 Red. masses --      3.0167                 2.1493                 1.0910
 Frc consts  --      2.3968                 1.8640                 0.9957
 IR Inten    --     22.5559                 9.5009                23.9871

                     31                     32                     33
                      A                      A                      A
 Frequencies --   1277.8056              1315.1428              1338.4513
 Red. masses --      1.2886                 1.1705                 1.2507
 Frc consts  --      1.2397                 1.1928                 1.3201
 IR Inten    --      2.3315                15.8871                 5.3530

                     34                     35                     36
                      A                      A                      A
 Frequencies --   1361.4280              1376.7448              1406.6722
 Red. masses --      1.3457                 1.4385                 1.2687
 Frc consts  --      1.4695                 1.6065                 1.4791
 IR Inten    --      1.5147                20.3477                15.4204

                     37                     38                     39
                      A                      A                      A
 Frequencies --   1419.2523              1487.5990              1496.4570
 Red. masses --      1.2390                 1.0729                 1.1904
 Frc consts  --      1.4705                 1.3989                 1.5706
 IR Inten    --      0.6236                 0.8923                33.0502

                     40                     41                     42
                      A                      A                      A
 Frequencies --   1501.2152              1507.7990              1521.2205
 Red. masses --      1.0716                 1.0690                 1.1714
 Frc consts  --      1.4229                 1.4319                 1.5971
 IR Inten    --     18.0227                 2.9277                 3.3353

                     43                     44                     45
                      A                      A                      A
 Frequencies --   1528.7897              1685.1701              2358.8101
 Red. masses --      1.0886                 1.0649                12.6506
 Frc consts  --      1.4990                 1.7818                41.4714
 IR Inten    --      0.7129                15.2020                 1.5208

                     46                     47                     48
                      A                      A                      A
 Frequencies --   2791.4426              2908.8289              3029.9380
 Red. masses --      1.0721                 1.0789                 1.0647
 Frc consts  --      4.9220                 5.3788                 5.7589
 IR Inten    --    126.3223                40.4429                25.1527

                     49                     50                     51
                      A                      A                      A
 Frequencies --   3040.2498              3047.5178              3084.8155
 Red. masses --      1.0369                 1.0849                 1.0969
 Frc consts  --      5.6468                 5.9365                 6.1501
 IR Inten    --     19.2181                17.7543                 3.7017

                     52                     53                     54
                      A                      A                      A
 Frequencies --   3111.3524              3121.0245              3375.2808
 Red. masses --      1.1006                 1.1022                 1.0565
 Frc consts  --      6.2773                 6.3259                 7.0918
 IR Inten    --     30.8788                19.5296                18.4888

                     55                     56                     57
                      A                      A                      A
 Frequencies --   3496.7728              3507.1705              3529.9144
 Red. masses --      1.0753                 1.0733                 1.0830
 Frc consts  --      7.7463                 7.7782                 7.9507
 IR Inten    --      2.6275                 0.0478                 0.3554

 - Thermochemistry -
 -------------------
 Temperature   298.150 Kelvin.  Pressure   1.00000 Atm.
 Atom     1 has atomic number  6 and mass  12.00000

 Molecular mass:   128.10620 amu.
 Principal axes and moments of inertia in atomic units:
                           1         2         3
     Eigenvalues --   560.144022540.656862963.76841
           X            0.99970  -0.02397  -0.00395
           Y            0.02401   0.99967   0.00961
           Z            0.00372  -0.00971   0.99995
 This molecule is an asymmetric top.
 Rotational symmetry number  1.
 Warning -- assumption of classical behavior for rotation
           may cause significant error
 Rotational temperatures (Kelvin)      0.15463     0.03409     0.02922
 Rotational constants (GHZ):           3.22192     0.71034     0.60893
 Zero-point vibrational energy     478898.8 (Joules/Mol)
                                  114.45955 (Kcal/Mol)
 Warning -- explicit consideration of  14 degrees of freedom as
           vibrations may cause significant error
 Vibrational temperatures:     60.91    76.49   126.29   162.12   200.04
          (Kelvin)            237.72   331.94   380.83   407.56   464.45
                              524.85   586.69   718.92   812.10   906.16
                             1077.84  1111.67  1143.99  1244.26  1361.75
                             1371.04  1487.51  1518.38  1557.41  1607.52
                             1618.26  1664.24  1670.77  1745.57  1790.77
                             1838.48  1892.20  1925.73  1958.79  1980.83
                             2023.89  2041.99  2140.32  2153.07  2159.91
                             2169.39  2188.70  2199.59  2424.58  3393.80
                             4016.26  4185.16  4359.40  4374.24  4384.70
                             4438.36  4476.54  4490.46  4856.28  5031.08
                             5046.04  5078.76

 Zero-point correction=                           0.182403 (Hartree/Particle)
 Thermal correction to Energy=                    0.193385
 Thermal correction to Enthalpy=                  0.194329
 Thermal correction to Gibbs Free Energy=         0.144864
 Sum of electronic and zero-point Energies=           -416.538735
 Sum of electronic and thermal Energies=              -416.527753
 Sum of electronic and thermal Enthalpies=            -416.526809
 Sum of electronic and thermal Free Energies=         -416.576274

                     E (Thermal)             CV                S
                      KCal/Mol        Cal/Mol-Kelvin    Cal/Mol-Kelvin
 Total                  121.351             37.995            104.107
 Electronic               0.000              0.000              0.000
 Translational            0.889              2.981             40.456
 Rotational               0.889              2.981             29.824
 Vibrational            119.573             32.033             33.827
 Vibration     1          0.595              1.980              5.147
 Vibration     2          0.596              1.976              4.696
 Vibration     3          0.601              1.958              3.709
 Vibration     4          0.607              1.939              3.222
 Vibration     5          0.615              1.914              2.817
 Vibration     6          0.624              1.885              2.489
 Vibration     7          0.652              1.794              1.873
 Vibration     8          0.671              1.738              1.631
 Vibration     9          0.682              1.705              1.514
 Vibration    10          0.708              1.630              1.296
 Vibration    11          0.738              1.545              1.102
 Vibration    12          0.772              1.453              0.935
 Vibration    13          0.855              1.251              0.659
 Vibration    14          0.920              1.108              0.515

 Optimization completed.
    -- Stationary point found.
 Normal termination of Gaussian 16 at Tue Jun  1 01:42:56 2021.
