 Gaussian 16, Revision A.03,
 Gaussian 16:  ES64L-G16RevA.03 25-Dec-2016

 -----------------------------
 # opt freq b3lyp/6-31g(2df,p)
 -----------------------------

 -------------------
 Title Card Required
 -------------------
 Symbolic Z-matrix:
 Charge =  0 Multiplicity = 1

 SCF Done:  E(RB3LYP) =  -410.396932061     A.U. after   12 cycles
 SCF Done:  E(RB3LYP) =  -410.401118625     A.U. after   10 cycles
 SCF Done:  E(RB3LYP) =  -410.401699474     A.U. after    9 cycles
 SCF Done:  E(RB3LYP) =  -410.401750898     A.U. after    9 cycles
 SCF Done:  E(RB3LYP) =  -410.401760058     A.U. after    8 cycles
 SCF Done:  E(RB3LYP) =  -410.401763761     A.U. after    6 cycles
 SCF Done:  E(RB3LYP) =  -410.401765604     A.U. after    7 cycles
 SCF Done:  E(RB3LYP) =  -410.401765844     A.U. after    6 cycles
 SCF Done:  E(RB3LYP) =  -410.401765930     A.U. after    5 cycles
 Optimization completed.
    -- Stationary point found.
 Normal termination of Gaussian 16 at Tue Jun  1 08:05:47 2021.

 ----------------------------------------------------------------------
 #N Geom=AllCheck Guess=TCheck SCRF=Check GenChk RB3LYP/6-31G(2df,p) Fr
 eq
 ----------------------------------------------------------------------

 Structure from the checkpoint file:  "CCCpCpCCCCCN.chk"
 -------------------
 Title Card Required
 -------------------
 Charge =  0 Multiplicity = 1

                         Standard orientation:
 ---------------------------------------------------------------------
 Center     Atomic      Atomic             Coordinates (Angstroms)
 Number     Number       Type             X           Y           Z
 ---------------------------------------------------------------------
      1          6           0       -4.836795   -0.400372   -0.445386
      2          6           0       -3.486274   -0.787115    0.166456
      3          6           0       -2.314940    0.149968   -0.188410
      4          6           0       -2.532186    1.568229    0.359826
      5          6           0       -0.986469   -0.459074    0.300623
      6          6           0        0.282669    0.259834   -0.173008
      7          6           0        1.570849   -0.453299    0.254957
      8          6           0        2.844110    0.261785   -0.206828
      9          6           0        4.127394   -0.456042    0.211450
     10          7           0        5.308427    0.297038   -0.225369
     11          1           0       -5.599337   -1.150544   -0.212654
     12          1           0       -4.768865   -0.325382   -1.536841
     13          1           0       -5.200605    0.560649   -0.069508
     14          1           0       -3.229233   -1.802247   -0.162627
     15          1           0       -3.581268   -0.840411    1.260249
     16          1           0       -2.265762    0.214984   -1.286656
     17          1           0       -2.583034    1.556365    1.455839
     18          1           0       -3.462716    2.007220   -0.010949
     19          1           0       -1.720981    2.242912    0.072470
     20          1           0       -0.939208   -1.504286   -0.034895
     21          1           0       -0.993534   -0.497138    1.399970
     22          1           0        0.302928    1.287122    0.211146
     23          1           0        0.263565    0.345438   -1.268842
     24          1           0        1.564029   -1.480290   -0.136523
     25          1           0        1.584606   -0.548746    1.349852
     26          1           0        2.871146    1.283969    0.189799
     27          1           0        2.829180    0.359226   -1.302433
     28          1           0        4.096610   -1.495343   -0.163179
     29          1           0        4.162915   -0.523916    1.306349
     30          1           0        5.347498    0.305150   -1.241295
     31          1           0        6.152942   -0.177478    0.080240
 ---------------------------------------------------------------------

 SCF Done:  E(RB3LYP) =  -410.401765930     A.U. after    1 cycles

 The electronic state is 1-A.
 Alpha  occ. eigenvalues --  -14.30121 -10.19760 -10.17900 -10.17332 -10.17268
 Alpha  occ. eigenvalues --  -10.17194 -10.17072 -10.17035 -10.16838 -10.16583
 Alpha  occ. eigenvalues --   -0.87123  -0.81171  -0.78077  -0.73506  -0.70519
 Alpha  occ. eigenvalues --   -0.66104  -0.62401  -0.58294  -0.57111  -0.54884
 Alpha  occ. eigenvalues --   -0.48201  -0.46613  -0.45685  -0.44888  -0.42984
 Alpha  occ. eigenvalues --   -0.42115  -0.41189  -0.39701  -0.38086  -0.37264
 Alpha  occ. eigenvalues --   -0.36758  -0.35387  -0.34897  -0.33766  -0.32844
 Alpha  occ. eigenvalues --   -0.32479  -0.31689  -0.31235  -0.30656  -0.29315
 Alpha  occ. eigenvalues --   -0.22984
 Alpha virt. eigenvalues --    0.08493   0.08747   0.10228   0.11260   0.11956
 Alpha virt. eigenvalues --    0.12662   0.13346   0.14150   0.15376   0.15935
 Alpha virt. eigenvalues --    0.16516   0.16703   0.17600   0.17946   0.19073

 Mulliken charges:
               1
     1  C   -0.391517
     2  C   -0.164530
     3  C    0.044545
     4  C   -0.389592
     5  C   -0.178872
     6  C   -0.193825
     7  C   -0.177022
     8  C   -0.155283
     9  C   -0.147298
    10  N   -0.509403
    11  H    0.110070
    12  H    0.111354
    13  H    0.117305
    14  H    0.088650
    15  H    0.089848
    16  H    0.064143
    17  H    0.108331
    18  H    0.112141
    19  H    0.114504
    20  H    0.085263
    21  H    0.087563
    22  H    0.097367
    23  H    0.089065
    24  H    0.089580
    25  H    0.092100
    26  H    0.104882
    27  H    0.084051
    28  H    0.074138
    29  H    0.099633
    30  H    0.220053
    31  H    0.222755
 Sum of Mulliken charges =  -0.00000

 Dipole moment (field-independent basis, Debye):
    X=              0.1641    Y=             -1.0828    Z=             -0.5055  Tot=              1.2062
 Quadrupole moment (field-independent basis, Debye-Ang):
   XX=            -65.2630   YY=            -68.7676   ZZ=            -65.0894
   XY=             -5.9837   XZ=             -2.7856   YZ=             -0.0402

  Exact polarizability: 137.419   0.833  96.345   0.294  -1.093  93.052
 Approx polarizability: 148.575   0.814 142.452  -0.156  -0.909 145.917

                      1                      2                      3
                      A                      A                      A
 Frequencies --     38.0550                44.7712                63.9265
 Red. masses --      3.2099                 1.7688                 3.3490
 Frc consts  --      0.0027                 0.0021                 0.0081
 IR Inten    --      0.3793                 1.8304                 0.1068

                      4                      5                      6
                      A                      A                      A
 Frequencies --     83.2995               100.7048               128.2196
 Red. masses --      2.2423                 1.8873                 1.9262
 Frc consts  --      0.0092                 0.0113                 0.0187
 IR Inten    --      0.1537                 1.1241                 1.5566

                      7                      8                      9
                      A                      A                      A
 Frequencies --    157.0469               173.4235               208.8638
 Red. masses --      2.0314                 3.0615                 1.1512
 Frc consts  --      0.0295                 0.0542                 0.0296
 IR Inten    --      0.5354                 0.2724                 0.2032

                     10                     11                     12
                      A                      A                      A
 Frequencies --    230.7782               253.8592               260.4066
 Red. masses --      2.5594                 1.2902                 1.2347
 Frc consts  --      0.0803                 0.0490                 0.0493
 IR Inten    --      1.9142                15.2655                15.7559

                     13                     14                     15
                      A                      A                      A
 Frequencies --    291.2000               344.5088               411.8101
 Red. masses --      2.3549                 2.5537                 2.0487
 Frc consts  --      0.1177                 0.1786                 0.2047
 IR Inten    --      6.8133                 1.8137                 0.1081

                     16                     17                     18
                      A                      A                      A
 Frequencies --    440.4156               469.4415               523.0255
 Red. masses --      2.9316                 2.8233                 2.6159
 Frc consts  --      0.3350                 0.3666                 0.4216
 IR Inten    --      4.9785                 0.2067                 4.2104

                     19                     20                     21
                      A                      A                      A
 Frequencies --    734.7672               759.0313               773.7460
 Red. masses --      1.0763                 1.1263                 1.3475
 Frc consts  --      0.3424                 0.3823                 0.4753
 IR Inten    --      2.4142                 1.1508                 1.6767

                     22                     23                     24
                      A                      A                      A
 Frequencies --    814.8902               837.0275               872.8025
 Red. masses --      1.5084                 1.3965                 1.3132
 Frc consts  --      0.5901                 0.5765                 0.5894
 IR Inten    --      5.2536                25.2299                94.0322

                     25                     26                     27
                      A                      A                      A
 Frequencies --    910.8665               941.9868               968.0363
 Red. masses --      2.1284                 1.3334                 1.9725
 Frc consts  --      1.0404                 0.6971                 1.0891
 IR Inten    --      1.0611                 7.1964                 2.1751

                     28                     29                     30
                      A                      A                      A
 Frequencies --    974.0153              1005.5609              1023.1542
 Red. masses --      1.4323                 1.6892                 2.4889
 Frc consts  --      0.8006                 1.0064                 1.5351
 IR Inten    --      1.4675                 5.9949                 4.4555

                     31                     32                     33
                      A                      A                      A
 Frequencies --   1035.3933              1055.9259              1059.6535
 Red. masses --      2.1453                 2.7507                 1.4542
 Frc consts  --      1.3550                 1.8070                 0.9620
 IR Inten    --      0.6175                 0.3260                 0.1490

                     34                     35                     36
                      A                      A                      A
 Frequencies --   1073.0520              1090.4849              1135.0706
 Red. masses --      2.4159                 2.4839                 1.5832
 Frc consts  --      1.6390                 1.7403                 1.2018
 IR Inten    --      0.0612                 7.5929                 3.4339

                     37                     38                     39
                      A                      A                      A
 Frequencies --   1162.4222              1176.5952              1206.1359
 Red. masses --      2.1460                 1.8211                 1.9301
 Frc consts  --      1.7084                 1.4854                 1.6543
 IR Inten    --      3.2414                 7.5305                 0.3996

                     40                     41                     42
                      A                      A                      A
 Frequencies --   1233.8069              1253.5745              1291.2333
 Red. masses --      1.3380                 1.4386                 1.2759
 Frc consts  --      1.2000                 1.3319                 1.2533
 IR Inten    --      2.2776                 3.7542                 1.3372

                     43                     44                     45
                      A                      A                      A
 Frequencies --   1295.1615              1310.6576              1324.6059
 Red. masses --      1.2714                 1.2380                 1.0487
 Frc consts  --      1.2565                 1.2530                 1.0841
 IR Inten    --      0.1861                 0.6618                 1.8697

                     46                     47                     48
                      A                      A                      A
 Frequencies --   1327.9951              1337.3231              1348.9483
 Red. masses --      1.1709                 1.1248                 1.3139
 Frc consts  --      1.2167                 1.1852                 1.4087
 IR Inten    --      0.1825                 1.2782                 0.9058

                     49                     50                     51
                      A                      A                      A
 Frequencies --   1379.0012              1380.8190              1389.6869
 Red. masses --      1.4349                 1.3062                 1.5075
 Frc consts  --      1.6076                 1.4673                 1.7153
 IR Inten    --      1.1192                 1.3194                 0.1684

                     52                     53                     54
                      A                      A                      A
 Frequencies --   1400.3707              1411.8295              1414.3605
 Red. masses --      1.5720                 1.2986                 1.2354
 Frc consts  --      1.8163                 1.5251                 1.4561
 IR Inten    --      0.0854                 2.6488                 4.2132

                     55                     56                     57
                      A                      A                      A
 Frequencies --   1431.8101              1475.7064              1484.3066
 Red. masses --      1.4772                 1.0767                 1.0735
 Frc consts  --      1.7843                 1.3815                 1.3934
 IR Inten    --     17.2850                 0.1956                 0.0706

                     58                     59                     60
                      A                      A                      A
 Frequencies --   1486.0955              1492.3845              1497.0323
 Red. masses --      1.0715                 1.0825                 1.0436
 Frc consts  --      1.3942                 1.4205                 1.3781
 IR Inten    --      0.1221                 1.0208                 4.3034

                     61                     62                     63
                      A                      A                      A
 Frequencies --   1498.7588              1506.3234              1509.2627
 Red. masses --      1.0614                 1.0780                 1.0819
 Frc consts  --      1.4047                 1.4412                 1.4521
 IR Inten    --      0.9802                 0.8527                 5.3886

                     64                     65                     66
                      A                      A                      A
 Frequencies --   1514.2191              1520.3069              1658.7381
 Red. masses --      1.0456                 1.0937                 1.0887
 Frc consts  --      1.4125                 1.4894                 1.7649
 IR Inten    --      4.9032                 1.4899                21.6616

                     67                     68                     69
                      A                      A                      A
 Frequencies --   2931.4903              2979.7992              2994.7858
 Red. masses --      1.0727                 1.0804                 1.0593
 Frc consts  --      5.4312                 5.6521                 5.5975
 IR Inten    --     71.7376                 8.4466                 3.5523

                     70                     71                     72
                      A                      A                      A
 Frequencies --   2999.2928              3001.7224              3007.6191
 Red. masses --      1.0619                 1.0632                 1.0617
 Frc consts  --      5.6285                 5.6443                 5.6586
 IR Inten    --      2.0696                 7.7217                 4.2474

                     73                     74                     75
                      A                      A                      A
 Frequencies --   3012.0884              3026.3268              3028.3385
 Red. masses --      1.0668                 1.0881                 1.0487
 Frc consts  --      5.7026                 5.8716                 5.6664
 IR Inten    --    105.0566                19.9688                10.8587

                     76                     77                     78
                      A                      A                      A
 Frequencies --   3029.7152              3031.6215              3035.8341
 Red. masses --      1.0848                 1.0469                 1.0831
 Frc consts  --      5.8668                 5.6689                 5.8812
 IR Inten    --      5.3470                26.3472                42.6558

                     79                     80                     81
                      A                      A                      A
 Frequencies --   3042.8053              3057.1579              3070.0081
 Red. masses --      1.0990                 1.1004                 1.1020
 Frc consts  --      5.9953                 6.0595                 6.1196
 IR Inten    --     25.2945                 7.2771               130.6649

                     82                     83                     84
                      A                      A                      A
 Frequencies --   3094.9976              3096.0941              3104.3294
 Red. masses --      1.1005                 1.0963                 1.1000
 Frc consts  --      6.2108                 6.1919                 6.2456
 IR Inten    --     35.9564                35.8491                52.7289

                     85                     86                     87
                      A                      A                      A
 Frequencies --   3112.4227              3481.8286              3559.3445
 Red. masses --      1.1000                 1.0496                 1.0916
 Frc consts  --      6.2784                 7.4968                 8.1483
 IR Inten    --     32.3277                 1.5882                 0.3103

 - Thermochemistry -
 -------------------
 Temperature   298.150 Kelvin.  Pressure   1.00000 Atm.
 Atom     1 has atomic number  6 and mass  12.00000

 Molecular mass:   143.16740 amu.
 Principal axes and moments of inertia in atomic units:
                           1         2         3
     Eigenvalues --   375.734625678.170155860.39399
           X            0.99999  -0.00352  -0.00014
           Y            0.00352   0.99997  -0.00652
           Z            0.00016   0.00652   0.99998
 This molecule is an asymmetric top.
 Rotational symmetry number  1.
 Rotational temperatures (Kelvin)      0.23052     0.01525     0.01478
 Rotational constants (GHZ):           4.80323     0.31784     0.30796
 Zero-point vibrational energy     763853.4 (Joules/Mol)
                                  182.56534 (Kcal/Mol)
 Warning -- explicit consideration of  18 degrees of freedom as
           vibrations may cause significant error
 Vibrational temperatures:     54.75    64.42    91.98   119.85   144.89
          (Kelvin)            184.48   225.96   249.52   300.51   332.04
                              365.25   374.67   418.97   495.67   592.50
                              633.66   675.42   752.52  1057.17  1092.08
                             1113.25  1172.45  1204.30  1255.77  1310.53
                             1355.31  1392.79  1401.39  1446.78  1472.09
                             1489.70  1519.24  1524.61  1543.88  1568.96
                             1633.11  1672.47  1692.86  1735.36  1775.17
                             1803.61  1857.80  1863.45  1885.74  1905.81
                             1910.69  1924.11  1940.84  1984.08  1986.69
                             1999.45  2014.82  2031.31  2034.95  2060.06
                             2123.21  2135.59  2138.16  2147.21  2153.90
                             2156.38  2167.26  2171.49  2178.62  2187.38
                             2386.55  4217.76  4287.27  4308.83  4315.31
                             4318.81  4327.29  4333.72  4354.21  4357.10
                             4359.08  4361.83  4367.89  4377.92  4398.57
                             4417.06  4453.01  4454.59  4466.44  4478.08
                             5009.57  5121.10

 Zero-point correction=                           0.290936 (Hartree/Particle)
 Thermal correction to Energy=                    0.304691
 Thermal correction to Enthalpy=                  0.305635
 Thermal correction to Gibbs Free Energy=         0.249751
 Sum of electronic and zero-point Energies=           -410.110830
 Sum of electronic and thermal Energies=              -410.097075
 Sum of electronic and thermal Enthalpies=            -410.096131
 Sum of electronic and thermal Free Energies=         -410.152015

                     E (Thermal)             CV                S
                      KCal/Mol        Cal/Mol-Kelvin    Cal/Mol-Kelvin
 Total                  191.196             48.992            117.617
 Electronic               0.000              0.000              0.000
 Translational            0.889              2.981             40.788
 Rotational               0.889              2.981             30.903
 Vibrational            189.419             43.031             45.926
 Vibration     1          0.594              1.982              5.358
 Vibration     2          0.595              1.979              5.036
 Vibration     3          0.597              1.972              4.332
 Vibration     4          0.600              1.961              3.812
 Vibration     5          0.604              1.949              3.441
 Vibration     6          0.611              1.925              2.973
 Vibration     7          0.621              1.895              2.585
 Vibration     8          0.627              1.875              2.398
 Vibration     9          0.642              1.827              2.054
 Vibration    10          0.652              1.794              1.873
 Vibration    11          0.665              1.756              1.704
 Vibration    12          0.668              1.745              1.659
 Vibration    13          0.687              1.690              1.467
 Vibration    14          0.723              1.586              1.191
 Vibration    15          0.776              1.445              0.920
 Vibration    16          0.800              1.382              0.825
 Vibration    17          0.827              1.318              0.739
 Vibration    18          0.878              1.199              0.603

                           ! Non-Optimized Parameters !
 Normal termination of Gaussian 16 at Tue Jun  1 08:55:26 2021.
