 Gaussian 16, Revision A.03,
 Gaussian 16:  ES64L-G16RevA.03 25-Dec-2016

 -----------------------------
 # opt freq b3lyp/6-31g(2df,p)
 -----------------------------

 -------------------
 Title Card Required
 -------------------
 Symbolic Z-matrix:
 Charge =  0 Multiplicity = 1

 SCF Done:  E(RB3LYP) =  -453.807544462     A.U. after   14 cycles
 SCF Done:  E(RB3LYP) =  -453.812168860     A.U. after   12 cycles
 SCF Done:  E(RB3LYP) =  -453.812800060     A.U. after   11 cycles
 SCF Done:  E(RB3LYP) =  -453.813032762     A.U. after   11 cycles
 SCF Done:  E(RB3LYP) =  -453.813107384     A.U. after   11 cycles
 SCF Done:  E(RB3LYP) =  -453.813199913     A.U. after   10 cycles
 SCF Done:  E(RB3LYP) =  -453.813305588     A.U. after   11 cycles
 SCF Done:  E(RB3LYP) =  -453.813389692     A.U. after   13 cycles
 SCF Done:  E(RB3LYP) =  -453.813649978     A.U. after   10 cycles
 SCF Done:  E(RB3LYP) =  -453.814826369     A.U. after   13 cycles
 SCF Done:  E(RB3LYP) =  -453.816136587     A.U. after   13 cycles
 SCF Done:  E(RB3LYP) =  -453.816693074     A.U. after   12 cycles
 SCF Done:  E(RB3LYP) =  -453.817112047     A.U. after   12 cycles
 SCF Done:  E(RB3LYP) =  -453.817186716     A.U. after   11 cycles
 SCF Done:  E(RB3LYP) =  -453.817210686     A.U. after   10 cycles
 SCF Done:  E(RB3LYP) =  -453.817216541     A.U. after   10 cycles
 SCF Done:  E(RB3LYP) =  -453.817217900     A.U. after    9 cycles
 SCF Done:  E(RB3LYP) =  -453.817218124     A.U. after    7 cycles
 SCF Done:  E(RB3LYP) =  -453.817218164     A.U. after    6 cycles
 Optimization completed.
    -- Stationary point found.
 Normal termination of Gaussian 16 at Mon May 31 16:17:08 2021.

 ----------------------------------------------------------------------
 #N Geom=AllCheck Guess=TCheck SCRF=Check GenChk RB3LYP/6-31G(2df,p) Fr
 eq
 ----------------------------------------------------------------------

 Structure from the checkpoint file:  "CCCpCppNpNNdNO.chk"
 -------------------
 Title Card Required
 -------------------
 Charge =  0 Multiplicity = 1

                         Standard orientation:
 ---------------------------------------------------------------------
 Center     Atomic      Atomic             Coordinates (Angstroms)
 Number     Number       Type             X           Y           Z
 ---------------------------------------------------------------------
      1          6           0       -3.352392   -0.348938    0.023945
      2          6           0       -1.960156   -0.775870   -0.448203
      3          6           0       -0.796740    0.125024    0.015781
      4          6           0       -0.876448    1.527314   -0.610852
      5          7           0       -0.758986    0.137466    1.489052
      6          7           0        0.422061   -0.536232   -0.471738
      7          7           0        1.577539    0.135595   -0.203621
      8          7           0        2.554049   -0.615630   -0.083560
      9          8           0        3.693308    0.176974    0.108723
     10          1           0       -4.107668   -1.039714   -0.362231
     11          1           0       -3.618582    0.653205   -0.325604
     12          1           0       -3.430583   -0.364515    1.115593
     13          1           0       -1.932421   -0.820610   -1.542018
     14          1           0       -1.761625   -1.789401   -0.078543
     15          1           0       -1.768404    2.048923   -0.253524
     16          1           0       -0.920636    1.470167   -1.702644
     17          1           0        0.000309    2.116503   -0.335947
     18          1           0       -1.567445    0.635510    1.851504
     19          1           0        0.054885    0.672446    1.783912
     20          1           0        0.474786   -1.519390   -0.206387
     21          1           0        4.382697   -0.492484    0.191152
 ---------------------------------------------------------------------

 SCF Done:  E(RB3LYP) =  -453.817218164     A.U. after    1 cycles

 The electronic state is 1-A.
 Alpha  occ. eigenvalues --  -19.17634 -14.40863 -14.39531 -14.36285 -14.30921
 Alpha  occ. eigenvalues --  -10.25145 -10.18583 -10.18152 -10.17186  -1.11581
 Alpha  occ. eigenvalues --   -1.01720  -0.91313  -0.84133  -0.77288  -0.71716
 Alpha  occ. eigenvalues --   -0.66925  -0.60718  -0.57313  -0.53275  -0.49904
 Alpha  occ. eigenvalues --   -0.49110  -0.47735  -0.45253  -0.43979  -0.41591
 Alpha  occ. eigenvalues --   -0.40499  -0.39349  -0.38419  -0.36545  -0.36075
 Alpha  occ. eigenvalues --   -0.34589  -0.33472  -0.32820  -0.26136  -0.24527
 Alpha  occ. eigenvalues --   -0.22732
 Alpha virt. eigenvalues --   -0.01134   0.07227   0.07913   0.10691   0.12283
 Alpha virt. eigenvalues --    0.12577   0.13223   0.14848   0.16146   0.16325
 Alpha virt. eigenvalues --    0.17387   0.18116   0.21085   0.21501   0.22571

 Mulliken charges:
               1
     1  C   -0.409830
     2  C   -0.176113
     3  C    0.249634
     4  C   -0.403291
     5  N   -0.529161
     6  N   -0.225488
     7  N   -0.025496
     8  N   -0.034119
     9  O   -0.376043
    10  H    0.121061
    11  H    0.121394
    12  H    0.123737
    13  H    0.107547
    14  H    0.099046
    15  H    0.107694
    16  H    0.120449
    17  H    0.137751
    18  H    0.224948
    19  H    0.234811
    20  H    0.227809
    21  H    0.303658
 Sum of Mulliken charges =  -0.00000

 Dipole moment (field-independent basis, Debye):
    X=             -1.1618    Y=             -0.4100    Z=              0.3615  Tot=              1.2840
 Quadrupole moment (field-independent basis, Debye-Ang):
   XX=            -47.7204   YY=            -54.2225   ZZ=            -56.0693
   XY=             -4.8265   XZ=              1.4396   YZ=              2.2217

  Exact polarizability: 117.295  -0.702  68.208   3.269   0.539  62.449
 Approx polarizability: 154.966  -2.103 102.246   8.103   1.353  94.406

                      1                      2                      3
                      A                      A                      A
 Frequencies --     64.0995                87.6804               113.7271
 Red. masses --      3.8041                 2.0154                 4.4912
 Frc consts  --      0.0092                 0.0091                 0.0342
 IR Inten    --      0.3735                 1.1611                 4.8268

                      4                      5                      6
                      A                      A                      A
 Frequencies --    154.6636               220.2060               247.9723
 Red. masses --      4.8304                 1.0455                 1.4661
 Frc consts  --      0.0681                 0.0299                 0.0531
 IR Inten    --     16.2814                 6.3343                10.8519

                      7                      8                      9
                      A                      A                      A
 Frequencies --    257.1316               287.0800               335.7030
 Red. masses --      2.1434                 1.1982                 3.8282
 Frc consts  --      0.0835                 0.0582                 0.2542
 IR Inten    --      1.4277                25.2752                26.9948

                     10                     11                     12
                      A                      A                      A
 Frequencies --    347.8987               351.2254               373.8462
 Red. masses --      3.1673                 3.1282                 2.0880
 Frc consts  --      0.2259                 0.2274                 0.1719
 IR Inten    --     10.3499                 1.6186                 8.3264

                     13                     14                     15
                      A                      A                      A
 Frequencies --    408.1637               434.5520               488.3240
 Red. masses --      1.3499                 2.7942                 2.2537
 Frc consts  --      0.1325                 0.3109                 0.3166
 IR Inten    --     64.1222                 5.0809                31.0701

                     16                     17                     18
                      A                      A                      A
 Frequencies --    597.0232               644.8014               747.1350
 Red. masses --      2.8075                 6.6374                 2.3843
 Frc consts  --      0.5896                 1.6259                 0.7842
 IR Inten    --     36.9498                 3.9346               113.5243

                     19                     20                     21
                      A                      A                      A
 Frequencies --    773.9820               786.8180               897.6482
 Red. masses --      2.3652                 1.2299                 1.7470
 Frc consts  --      0.8348                 0.4486                 0.8294
 IR Inten    --     33.5838                 0.7603                58.4124

                     22                     23                     24
                      A                      A                      A
 Frequencies --    924.3549               960.9928              1011.1344
 Red. masses --      1.6032                 1.8009                 1.7979
 Frc consts  --      0.8071                 0.9799                 1.0830
 IR Inten    --     94.8965                13.0501                15.9687

                     25                     26                     27
                      A                      A                      A
 Frequencies --   1021.4738              1067.7540              1075.8786
 Red. masses --      1.8774                 1.7884                 3.2898
 Frc consts  --      1.1542                 1.2013                 2.2436
 IR Inten    --     11.1740                25.1659               131.9518

                     28                     29                     30
                      A                      A                      A
 Frequencies --   1094.7249              1180.3309              1219.6102
 Red. masses --      1.7950                 2.9256                 2.6726
 Frc consts  --      1.2674                 2.4015                 2.3422
 IR Inten    --     10.0653                97.0004                57.9919

                     31                     32                     33
                      A                      A                      A
 Frequencies --   1268.9118              1306.9200              1320.2277
 Red. masses --      2.6785                 1.7129                 1.3105
 Frc consts  --      2.5410                 1.7238                 1.3458
 IR Inten    --     22.9130                26.4576                 4.6016

                     34                     35                     36
                      A                      A                      A
 Frequencies --   1378.1187              1390.1024              1406.6744
 Red. masses --      1.4381                 1.5022                 1.3423
 Frc consts  --      1.6092                 1.7103                 1.5650
 IR Inten    --     18.5299                63.2829                12.0874

                     37                     38                     39
                      A                      A                      A
 Frequencies --   1412.4222              1476.0925              1486.2651
 Red. masses --      1.2297                 1.0737                 1.0648
 Frc consts  --      1.4454                 1.3783                 1.3859
 IR Inten    --      3.0373                 0.7972                 2.4198

                     40                     41                     42
                      A                      A                      A
 Frequencies --   1489.6756              1504.2008              1508.5548
 Red. masses --      1.1996                 1.0745                 1.1033
 Frc consts  --      1.5684                 1.4324                 1.4793
 IR Inten    --     18.0523                 6.5767                 1.1974

                     43                     44                     45
                      A                      A                      A
 Frequencies --   1510.6363              1631.5565              1649.1194
 Red. masses --      1.0526                 4.4499                 1.1540
 Frc consts  --      1.4153                 6.9792                 1.8492
 IR Inten    --      6.4176                21.8070                35.9567

                     46                     47                     48
                      A                      A                      A
 Frequencies --   3029.1820              3040.3334              3047.2256
 Red. masses --      1.0616                 1.0357                 1.0368
 Frc consts  --      5.7392                 5.6406                 5.6723
 IR Inten    --     23.6140                20.4349                15.3609

                     49                     50                     51
                      A                      A                      A
 Frequencies --   3075.0642              3107.1617              3111.7952
 Red. masses --      1.0997                 1.1004                 1.1024
 Frc consts  --      6.1266                 6.2592                 6.2892
 IR Inten    --      7.5748                24.0238                45.8578

                     52                     53                     54
                      A                      A                      A
 Frequencies --   3117.7991              3137.8882              3459.6501
 Red. masses --      1.1011                 1.1004                 1.0733
 Frc consts  --      6.3065                 6.3838                 7.5689
 IR Inten    --     23.8070                14.4999                 0.8601

                     55                     56                     57
                      A                      A                      A
 Frequencies --   3479.6170              3558.1752              3809.3667
 Red. masses --      1.0495                 1.0911                 1.0669
 Frc consts  --      7.4868                 8.1393                 9.1218
 IR Inten    --      0.9765                 0.2892                95.5828

 - Thermochemistry -
 -------------------
 Temperature   298.150 Kelvin.  Pressure   1.00000 Atm.
 Atom     1 has atomic number  6 and mass  12.00000

 Molecular mass:   132.10111 amu.
 Principal axes and moments of inertia in atomic units:
                           1         2         3
     Eigenvalues --   438.454682435.223672476.13171
           X            0.99999  -0.00192   0.00330
           Y            0.00191   1.00000   0.00189
           Z           -0.00331  -0.00189   0.99999
 This molecule is an asymmetric top.
 Rotational symmetry number  1.
 Warning -- assumption of classical behavior for rotation
           may cause significant error
 Rotational temperatures (Kelvin)      0.19754     0.03557     0.03498
 Rotational constants (GHZ):           4.11614     0.74110     0.72886
 Zero-point vibrational energy     471859.0 (Joules/Mol)
                                  112.77702 (Kcal/Mol)
 Warning -- explicit consideration of  16 degrees of freedom as
           vibrations may cause significant error
 Vibrational temperatures:     92.22   126.15   163.63   222.53   316.83
          (Kelvin)            356.78   369.96   413.04   483.00   500.55
                              505.34   537.88   587.26   625.22   702.59
                              858.98   927.73  1074.96  1113.59  1132.06
                             1291.52  1329.94  1382.65  1454.80  1469.67
                             1536.26  1547.95  1575.06  1698.23  1754.75
                             1825.68  1880.37  1899.51  1982.81  2000.05
                             2023.89  2032.16  2123.77  2138.40  2143.31
                             2164.21  2170.47  2173.47  2347.45  2372.72
                             4358.32  4374.36  4384.28  4424.33  4470.51
                             4477.18  4485.82  4514.72  4977.66  5006.39
                             5119.42  5480.83

 Zero-point correction=                           0.179722 (Hartree/Particle)
 Thermal correction to Energy=                    0.190635
 Thermal correction to Enthalpy=                  0.191579
 Thermal correction to Gibbs Free Energy=         0.143899
 Sum of electronic and zero-point Energies=           -453.637497
 Sum of electronic and thermal Energies=              -453.626583
 Sum of electronic and thermal Enthalpies=            -453.625639
 Sum of electronic and thermal Free Energies=         -453.673320

                     E (Thermal)             CV                S
                      KCal/Mol        Cal/Mol-Kelvin    Cal/Mol-Kelvin
 Total                  119.625             40.084            100.352
 Electronic               0.000              0.000              0.000
 Translational            0.889              2.981             40.548
 Rotational               0.889              2.981             29.360
 Vibrational            117.848             34.122             30.445
 Vibration     1          0.597              1.971              4.327
 Vibration     2          0.601              1.958              3.711
 Vibration     3          0.607              1.938              3.204
 Vibration     4          0.620              1.897              2.614
 Vibration     5          0.647              1.810              1.957
 Vibration     6          0.662              1.766              1.745
 Vibration     7          0.667              1.751              1.681
 Vibration     8          0.684              1.698              1.491
 Vibration     9          0.717              1.604              1.232
 Vibration    10          0.726              1.580              1.176
 Vibration    11          0.728              1.573              1.161
 Vibration    12          0.745              1.526              1.064
 Vibration    13          0.773              1.452              0.933
 Vibration    14          0.795              1.395              0.844
 Vibration    15          0.844              1.276              0.688
 Vibration    16          0.955              1.038              0.455

 Optimization completed.
    -- Stationary point found.
 Normal termination of Gaussian 16 at Mon May 31 16:46:04 2021.
