 Gaussian 16, Revision A.03,
 Gaussian 16:  ES64L-G16RevA.03 25-Dec-2016

 -----------------------------
 # opt freq b3lyp/6-31g(2df,p)
 -----------------------------

 -------------------
 Title Card Required
 -------------------
 Symbolic Z-matrix:
 Charge =  0 Multiplicity = 1

 SCF Done:  E(RB3LYP) =  -387.089675411     A.U. after   12 cycles
 SCF Done:  E(RB3LYP) =  -387.093919423     A.U. after   11 cycles
 SCF Done:  E(RB3LYP) =  -387.097714753     A.U. after   11 cycles
 SCF Done:  E(RB3LYP) =  -387.102630887     A.U. after   11 cycles
 SCF Done:  E(RB3LYP) =  -387.105000571     A.U. after   11 cycles
 SCF Done:  E(RB3LYP) =  -387.106152227     A.U. after   10 cycles
 SCF Done:  E(RB3LYP) =  -387.106596504     A.U. after   10 cycles
 SCF Done:  E(RB3LYP) =  -387.106974222     A.U. after   10 cycles
 SCF Done:  E(RB3LYP) =  -387.107073472     A.U. after    9 cycles
 SCF Done:  E(RB3LYP) =  -387.107098520     A.U. after    9 cycles
 SCF Done:  E(RB3LYP) =  -387.107106152     A.U. after    8 cycles
 SCF Done:  E(RB3LYP) =  -387.107109393     A.U. after    8 cycles
 SCF Done:  E(RB3LYP) =  -387.107109893     A.U. after    7 cycles
 SCF Done:  E(RB3LYP) =  -387.107110483     A.U. after    7 cycles
 SCF Done:  E(RB3LYP) =  -387.107110649     A.U. after    6 cycles
 Optimization completed.
    -- Stationary point found.
 Normal termination of Gaussian 16 at Mon May 31 14:19:32 2021.

 ----------------------------------------------------------------------
 #N Geom=AllCheck Guess=TCheck SCRF=Check GenChk RB3LYP/6-31G(2df,p) Fr
 eq
 ----------------------------------------------------------------------

 Structure from the checkpoint file:  "CCCpNpNpCCpCC.chk"
 -------------------
 Title Card Required
 -------------------
 Charge =  0 Multiplicity = 1

                         Standard orientation:
 ---------------------------------------------------------------------
 Center     Atomic      Atomic             Coordinates (Angstroms)
 Number     Number       Type             X           Y           Z
 ---------------------------------------------------------------------
      1          6           0       -3.268558    0.089985    0.115241
      2          6           0       -1.824302    0.534994   -0.137228
      3          6           0       -0.782670   -0.530119    0.266473
      4          7           0       -0.948926   -1.788482   -0.466752
      5          7           0        0.594899   -0.070182    0.051683
      6          6           0        0.902188    1.266552    0.583136
      7          6           0        0.939378    2.366532   -0.482339
      8          6           0        1.597464   -1.063204    0.464464
      9          6           0        2.909173   -0.922604   -0.308285
     10          1           0       -3.969748    0.892179   -0.132971
     11          1           0       -3.425571   -0.172403    1.167933
     12          1           0       -3.541576   -0.780177   -0.490079
     13          1           0       -1.651727    1.464912    0.412492
     14          1           0       -1.682278    0.765901   -1.200848
     15          1           0       -0.956981   -0.778052    1.335172
     16          1           0       -0.967390   -1.593968   -1.464947
     17          1           0       -1.831380   -2.223197   -0.221700
     18          1           0        1.887480    1.223770    1.058705
     19          1           0        0.207885    1.543644    1.391767
     20          1           0        1.661380    2.110672   -1.263379
     21          1           0        1.236529    3.322551   -0.036117
     22          1           0       -0.032404    2.506362   -0.962154
     23          1           0        1.174353   -2.049116    0.272853
     24          1           0        1.796141   -0.998643    1.551305
     25          1           0        2.731549   -1.038596   -1.381720
     26          1           0        3.622225   -1.690006    0.011407
     27          1           0        3.383659    0.051994   -0.151011
 ---------------------------------------------------------------------

 SCF Done:  E(RB3LYP) =  -387.107110649     A.U. after    1 cycles

 The electronic state is 1-A.
 Alpha  occ. eigenvalues --  -14.30564 -14.30448 -10.22929 -10.19746 -10.18487
 Alpha  occ. eigenvalues --  -10.17677 -10.17656 -10.16494 -10.16164  -0.92338
 Alpha  occ. eigenvalues --   -0.85575  -0.76354  -0.74343  -0.71623  -0.65022
 Alpha  occ. eigenvalues --   -0.61462  -0.58340  -0.55812  -0.49592  -0.47530
 Alpha  occ. eigenvalues --   -0.45482  -0.44163  -0.43280  -0.42139  -0.40575
 Alpha  occ. eigenvalues --   -0.38958  -0.38331  -0.37375  -0.36453  -0.35005
 Alpha  occ. eigenvalues --   -0.34689  -0.33878  -0.33006  -0.32269  -0.31968
 Alpha  occ. eigenvalues --   -0.23447  -0.20188
 Alpha virt. eigenvalues --    0.08047   0.09706   0.11232   0.11629   0.13449
 Alpha virt. eigenvalues --    0.14180   0.14743   0.15303   0.15972   0.16352
 Alpha virt. eigenvalues --    0.17138   0.17726   0.18354   0.19357   0.19413

 Mulliken charges:
               1
     1  C   -0.394998
     2  C   -0.184027
     3  C    0.072460
     4  N   -0.500872
     5  N   -0.067029
     6  C   -0.134142
     7  C   -0.365644
     8  C   -0.123110
     9  C   -0.379862
    10  H    0.115588
    11  H    0.115582
    12  H    0.106533
    13  H    0.101528
    14  H    0.096813
    15  H    0.050332
    16  H    0.221406
    17  H    0.227198
    18  H    0.095582
    19  H    0.087123
    20  H    0.118874
    21  H    0.101837
    22  H    0.113976
    23  H    0.129104
    24  H    0.064961
    25  H    0.115466
    26  H    0.105858
    27  H    0.109466
 Sum of Mulliken charges =  -0.00000

 Dipole moment (field-independent basis, Debye):
    X=             -1.1960    Y=              0.3942    Z=              0.1101  Tot=              1.2640
 Quadrupole moment (field-independent basis, Debye-Ang):
   XX=            -57.3873   YY=            -60.6708   ZZ=            -58.6782
   XY=              1.8458   XZ=              1.2557   YZ=              1.0384

  Exact polarizability: 108.537   0.092  95.055  -0.031   0.011  80.625
 Approx polarizability: 132.726   1.268 130.382   0.291   1.277 125.718

                      1                      2                      3
                      A                      A                      A
 Frequencies --     49.4117                82.9731               105.9740
 Red. masses --      2.9592                 2.2226                 2.3896
 Frc consts  --      0.0043                 0.0090                 0.0158
 IR Inten    --      0.3399                 0.0298                 0.1234

                      4                      5                      6
                      A                      A                      A
 Frequencies --    123.4468               168.5259               211.2529
 Red. masses --      1.8152                 2.5911                 1.0865
 Frc consts  --      0.0163                 0.0434                 0.0286
 IR Inten    --      0.1573                 1.8662                 0.1552

                      7                      8                      9
                      A                      A                      A
 Frequencies --    220.2501               233.0868               264.3073
 Red. masses --      1.1383                 1.1468                 1.2715
 Frc consts  --      0.0325                 0.0367                 0.0523
 IR Inten    --      0.5083                 8.5685                18.2360

                     10                     11                     12
                      A                      A                      A
 Frequencies --    285.7856               340.3293               356.4128
 Red. masses --      2.2509                 2.3735                 2.3266
 Frc consts  --      0.1083                 0.1620                 0.1741
 IR Inten    --      1.2701                 2.2917                 5.6795

                     13                     14                     15
                      A                      A                      A
 Frequencies --    379.1445               416.3621               486.8361
 Red. masses --      2.7943                 2.8377                 2.5332
 Frc consts  --      0.2367                 0.2898                 0.3537
 IR Inten    --      1.6827                 7.0521                 6.8220

                     16                     17                     18
                      A                      A                      A
 Frequencies --    502.5091               545.3234               761.3879
 Red. masses --      2.3996                 2.4735                 1.8125
 Frc consts  --      0.3570                 0.4334                 0.6191
 IR Inten    --      3.2203                 6.7129                 9.9232

                     19                     20                     21
                      A                      A                      A
 Frequencies --    781.1002               798.0642               817.2616
 Red. masses --      1.1621                 1.3902                 1.2342
 Frc consts  --      0.4178                 0.5217                 0.4857
 IR Inten    --      7.3672                 4.1599                 4.8210

                     22                     23                     24
                      A                      A                      A
 Frequencies --    838.1569               903.1901               937.6176
 Red. masses --      1.7517                 1.7441                 1.8401
 Frc consts  --      0.7250                 0.8383                 0.9531
 IR Inten    --     86.2658                44.3699                 2.6483

                     25                     26                     27
                      A                      A                      A
 Frequencies --    987.4712              1011.3928              1046.9186
 Red. masses --      1.9813                 1.6212                 1.9525
 Frc consts  --      1.1383                 0.9771                 1.2609
 IR Inten    --     12.2837                 3.1091                36.7529

                     28                     29                     30
                      A                      A                      A
 Frequencies --   1058.4907              1087.0766              1098.3551
 Red. masses --      2.6875                 2.2454                 1.8218
 Frc consts  --      1.7741                 1.5634                 1.2949
 IR Inten    --      6.5576                 7.4917                 3.0447

                     31                     32                     33
                      A                      A                      A
 Frequencies --   1106.5075              1120.4036              1150.9404
 Red. masses --      2.4941                 1.5444                 1.9177
 Frc consts  --      1.7992                 1.1422                 1.4967
 IR Inten    --      4.2313                25.7103                34.7057

                     34                     35                     36
                      A                      A                      A
 Frequencies --   1213.3454              1234.5796              1252.7024
 Red. masses --      2.2332                 2.4864                 1.6909
 Frc consts  --      1.9371                 2.2328                 1.5634
 IR Inten    --     30.0117                39.2616                17.0196

                     37                     38                     39
                      A                      A                      A
 Frequencies --   1298.8571              1324.8305              1334.6007
 Red. masses --      1.2680                 1.1515                 1.2441
 Frc consts  --      1.2603                 1.1908                 1.3056
 IR Inten    --     14.1827                22.9580                 5.2255

                     40                     41                     42
                      A                      A                      A
 Frequencies --   1345.3264              1375.9546              1393.7957
 Red. masses --      1.2267                 1.4508                 1.2718
 Frc consts  --      1.3082                 1.6183                 1.4557
 IR Inten    --     10.3458                20.5395                 4.1244

                     43                     44                     45
                      A                      A                      A
 Frequencies --   1398.4558              1404.6135              1409.5320
 Red. masses --      1.2344                 1.2338                 1.2778
 Frc consts  --      1.4224                 1.4341                 1.4958
 IR Inten    --     15.9229                 8.3657                12.6273

                     46                     47                     48
                      A                      A                      A
 Frequencies --   1414.4523              1434.1699              1482.8194
 Red. masses --      1.2827                 1.3813                 1.0643
 Frc consts  --      1.5120                 1.6739                 1.3788
 IR Inten    --      3.5538                11.0556                 0.7148

                     49                     50                     51
                      A                      A                      A
 Frequencies --   1484.6203              1493.6186              1496.7225
 Red. masses --      1.0494                 1.0491                 1.0478
 Frc consts  --      1.3627                 1.3790                 1.3830
 IR Inten    --      0.4501                 2.4651                 0.3792

                     52                     53                     54
                      A                      A                      A
 Frequencies --   1499.6143              1501.7437              1509.7560
 Red. masses --      1.0486                 1.0436                 1.0586
 Frc consts  --      1.3894                 1.3867                 1.4217
 IR Inten    --      1.2466                 4.0596                 7.1621

                     55                     56                     57
                      A                      A                      A
 Frequencies --   1513.3651              1517.4221              1635.2787
 Red. masses --      1.0829                 1.0827                 1.1022
 Frc consts  --      1.4612                 1.4689                 1.7366
 IR Inten    --      2.4378                 6.8811                22.9572

                     58                     59                     60
                      A                      A                      A
 Frequencies --   2869.4421              2917.0682              2979.1162
 Red. masses --      1.0801                 1.0734                 1.0714
 Frc consts  --      5.2398                 5.3814                 5.6025
 IR Inten    --     69.1701                83.8327                51.2553

                     61                     62                     63
                      A                      A                      A
 Frequencies --   3026.9449              3031.4175              3031.5009
 Red. masses --      1.0629                 1.0361                 1.0364
 Frc consts  --      5.7382                 5.6098                 5.6115
 IR Inten    --     11.7920                56.1090                 6.2621

                     64                     65                     66
                      A                      A                      A
 Frequencies --   3035.5000              3058.4797              3078.4323
 Red. masses --      1.0387                 1.0889                 1.0960
 Frc consts  --      5.6392                 6.0015                 6.1193
 IR Inten    --     37.0313                25.5277                 4.1190

                     67                     68                     69
                      A                      A                      A
 Frequencies --   3091.4816              3099.5058              3104.1307
 Red. masses --      1.0988                 1.1011                 1.0987
 Frc consts  --      6.1873                 6.2324                 6.2376
 IR Inten    --     25.5755                37.4990                26.2837

                     70                     71                     72
                      A                      A                      A
 Frequencies --   3106.9300              3108.5542              3123.4982
 Red. masses --      1.1004                 1.1008                 1.1008
 Frc consts  --      6.2584                 6.2673                 6.3276
 IR Inten    --     43.2865                37.3436                35.7109

                     73                     74                     75
                      A                      A                      A
 Frequencies --   3129.7923              3485.7106              3587.0323
 Red. masses --      1.0887                 1.0506                 1.0903
 Frc consts  --      6.2835                 7.5208                 8.2657
 IR Inten    --     15.6966                 0.2108                 0.4524

 - Thermochemistry -
 -------------------
 Temperature   298.150 Kelvin.  Pressure   1.00000 Atm.
 Atom     1 has atomic number  6 and mass  12.00000

 Molecular mass:   130.14700 amu.
 Principal axes and moments of inertia in atomic units:
                           1         2         3
     Eigenvalues --   862.872471692.449362324.90627
           X            1.00000  -0.00159  -0.00197
           Y            0.00158   0.99999  -0.00517
           Z            0.00198   0.00516   0.99998
 This molecule is an asymmetric top.
 Rotational symmetry number  1.
 Warning -- assumption of classical behavior for rotation
           may cause significant error
 Rotational temperatures (Kelvin)      0.10038     0.05118     0.03725
 Rotational constants (GHZ):           2.09155     1.06635     0.77626
 Zero-point vibrational energy     658609.9 (Joules/Mol)
                                  157.41155 (Kcal/Mol)
 Warning -- explicit consideration of  17 degrees of freedom as
           vibrations may cause significant error
 Vibrational temperatures:     71.09   119.38   152.47   177.61   242.47
          (Kelvin)            303.95   316.89   335.36   380.28   411.18
                              489.66   512.80   545.50   599.05   700.45
                              723.00   784.60  1095.47  1123.83  1148.24
                             1175.86  1205.92  1299.49  1349.02  1420.75
                             1455.17  1506.28  1522.93  1564.06  1580.29
                             1592.02  1612.01  1655.95  1745.73  1776.28
                             1802.36  1868.77  1906.14  1920.19  1935.62
                             1979.69  2005.36  2012.07  2020.93  2028.00
                             2035.08  2063.45  2133.45  2136.04  2148.98
                             2153.45  2157.61  2160.67  2172.20  2177.39
                             2183.23  2352.80  4128.49  4197.01  4286.28
                             4355.10  4361.53  4361.65  4367.41  4400.47
                             4429.18  4447.95  4459.50  4466.15  4470.18
                             4472.52  4494.02  4503.07  5015.16  5160.94

 Zero-point correction=                           0.250851 (Hartree/Particle)
 Thermal correction to Energy=                    0.262732
 Thermal correction to Enthalpy=                  0.263676
 Thermal correction to Gibbs Free Energy=         0.213710
 Sum of electronic and zero-point Energies=           -386.856259
 Sum of electronic and thermal Energies=              -386.844379
 Sum of electronic and thermal Enthalpies=            -386.843434
 Sum of electronic and thermal Free Energies=         -386.893401

                     E (Thermal)             CV                S
                      KCal/Mol        Cal/Mol-Kelvin    Cal/Mol-Kelvin
 Total                  164.867             43.813            105.163
 Electronic               0.000              0.000              0.000
 Translational            0.889              2.981             40.503
 Rotational               0.889              2.981             29.608
 Vibrational            163.089             37.851             35.051
 Vibration     1          0.595              1.978              4.841
 Vibration     2          0.600              1.961              3.819
 Vibration     3          0.605              1.944              3.341
 Vibration     4          0.610              1.929              3.046
 Vibration     5          0.625              1.881              2.452
 Vibration     6          0.643              1.824              2.033
 Vibration     7          0.647              1.810              1.957
 Vibration     8          0.654              1.790              1.855
 Vibration     9          0.671              1.738              1.633
 Vibration    10          0.684              1.700              1.499
 Vibration    11          0.720              1.595              1.211
 Vibration    12          0.732              1.562              1.138
 Vibration    13          0.749              1.515              1.043
 Vibration    14          0.780              1.435              0.904
 Vibration    15          0.843              1.279              0.692
 Vibration    16          0.858              1.244              0.652
 Vibration    17          0.900              1.150              0.554

 Optimization completed.
    -- Stationary point found.
 Normal termination of Gaussian 16 at Mon May 31 15:06:09 2021.
