 Gaussian 16, Revision A.03,
 Gaussian 16:  ES64L-G16RevA.03 25-Dec-2016

 -----------------------------
 # opt freq b3lyp/6-31g(2df,p)
 -----------------------------

 -------------------
 Title Card Required
 -------------------
 Symbolic Z-matrix:
 Charge =  0 Multiplicity = 1

 SCF Done:  E(RB3LYP) =  -327.148795126     A.U. after   13 cycles
 SCF Done:  E(RB3LYP) =  -327.151409747     A.U. after   12 cycles
 SCF Done:  E(RB3LYP) =  -327.152008524     A.U. after   11 cycles
 SCF Done:  E(RB3LYP) =  -327.152067126     A.U. after   11 cycles
 SCF Done:  E(RB3LYP) =  -327.152189561     A.U. after    9 cycles
 SCF Done:  E(RB3LYP) =  -327.152209698     A.U. after    9 cycles
 SCF Done:  E(RB3LYP) =  -327.152214230     A.U. after    8 cycles
 SCF Done:  E(RB3LYP) =  -327.152214776     A.U. after    7 cycles
 SCF Done:  E(RB3LYP) =  -327.152215142     A.U. after    7 cycles
 Optimization completed.
    -- Stationary point found.
 Normal termination of Gaussian 16 at Mon May 31 18:13:28 2021.

 ----------------------------------------------------------------------
 #N Geom=AllCheck Guess=TCheck SCRF=Check GenChk RB3LYP/6-31G(2df,p) Fr
 eq
 ----------------------------------------------------------------------

 Structure from the checkpoint file:  "CCCpCpCpdNpO.chk"
 -------------------
 Title Card Required
 -------------------
 Charge =  0 Multiplicity = 1

                         Standard orientation:
 ---------------------------------------------------------------------
 Center     Atomic      Atomic             Coordinates (Angstroms)
 Number     Number       Type             X           Y           Z
 ---------------------------------------------------------------------
      1          6           0       -2.675258   -0.224474   -0.352805
      2          6           0       -1.280063   -0.720422    0.041298
      3          6           0       -0.158121    0.300111   -0.211580
      4          6           0       -0.277110    1.546444    0.691406
      5          6           0        1.235623   -0.308718   -0.060401
      6          7           0        1.575319   -1.380847    0.519427
      7          8           0        2.236602    0.437122   -0.605921
      8          1           0       -3.419829   -1.011591   -0.201968
      9          1           0       -2.708803    0.064893   -1.409118
     10          1           0       -2.988512    0.639633    0.240451
     11          1           0       -1.053391   -1.634062   -0.519938
     12          1           0       -1.281106   -0.998950    1.103336
     13          1           0       -0.244204    0.630104   -1.259312
     14          1           0       -0.238956    1.255901    1.746325
     15          1           0       -1.216494    2.076000    0.514529
     16          1           0        0.540226    2.252453    0.516479
     17          1           0        0.761148   -1.854097    0.903010
     18          1           0        1.859435    1.191025   -1.069912
 ---------------------------------------------------------------------

 SCF Done:  E(RB3LYP) =  -327.152215142     A.U. after    1 cycles

 The electronic state is 1-A.
 Alpha  occ. eigenvalues --  -19.16786 -14.28949 -10.26780 -10.21120 -10.19551
 Alpha  occ. eigenvalues --  -10.19295 -10.18623  -1.06401  -0.88205  -0.81267
 Alpha  occ. eigenvalues --   -0.74008  -0.66406  -0.61889  -0.58705  -0.50772
 Alpha  occ. eigenvalues --   -0.47748  -0.46171  -0.43579  -0.42842  -0.40599
 Alpha  occ. eigenvalues --   -0.39337  -0.38830  -0.36881  -0.35137  -0.34000
 Alpha  occ. eigenvalues --   -0.33492  -0.26191  -0.25631
 Alpha virt. eigenvalues --    0.03080   0.05702   0.08786   0.10619   0.11923
 Alpha virt. eigenvalues --    0.13630   0.14772   0.15892   0.16072   0.17715
 Alpha virt. eigenvalues --    0.18337   0.20195   0.22260   0.22788   0.23211

 Mulliken charges:
               1
     1  C   -0.398820
     2  C   -0.194468
     3  C   -0.085466
     4  C   -0.391520
     5  C    0.380905
     6  N   -0.475676
     7  O   -0.385560
     8  H    0.121149
     9  H    0.117821
    10  H    0.122587
    11  H    0.112528
    12  H    0.106419
    13  H    0.080665
    14  H    0.133145
    15  H    0.124724
    16  H    0.116364
    17  H    0.219948
    18  H    0.295255
 Sum of Mulliken charges =  -0.00000

 Dipole moment (field-independent basis, Debye):
    X=             -3.4429    Y=              2.1534    Z=             -0.8381  Tot=              4.1465
 Quadrupole moment (field-independent basis, Debye-Ang):
   XX=            -52.9297   YY=            -43.0706   ZZ=            -42.4052
   XY=              5.8759   XZ=             -2.1397   YZ=             -1.4801

  Exact polarizability:  69.894  -0.110  67.719   0.158  -5.341  54.972
 Approx polarizability:  89.571  -1.523 101.979  -0.530 -13.687  85.282

                      1                      2                      3
                      A                      A                      A
 Frequencies --     66.9088                97.1133               203.8165
 Red. masses --      3.7903                 1.8460                 1.7320
 Frc consts  --      0.0100                 0.0103                 0.0424
 IR Inten    --      0.1138                 1.6868                 2.5916

                      4                      5                      6
                      A                      A                      A
 Frequencies --    214.1983               221.6457               282.2886
 Red. masses --      1.3486                 1.6430                 1.9628
 Frc consts  --      0.0365                 0.0476                 0.0922
 IR Inten    --      1.9088                 6.1771                 7.6202

                      7                      8                      9
                      A                      A                      A
 Frequencies --    353.2246               365.2190               388.1836
 Red. masses --      2.4462                 3.0408                 1.1973
 Frc consts  --      0.1798                 0.2390                 0.1063
 IR Inten    --      8.3531                 1.8693                56.5674

                     10                     11                     12
                      A                      A                      A
 Frequencies --    485.7128               606.6444               702.8630
 Red. masses --      2.8917                 3.8468                 4.4907
 Frc consts  --      0.4019                 0.8341                 1.3071
 IR Inten    --      1.9823                 1.2379                 3.5369

                     13                     14                     15
                      A                      A                      A
 Frequencies --    775.4215               813.5326               862.1849
 Red. masses --      1.6434                 1.5884                 1.1111
 Frc consts  --      0.5822                 0.6194                 0.4866
 IR Inten    --      3.1926                 7.7482                46.2401

                     16                     17                     18
                      A                      A                      A
 Frequencies --    890.6715               969.1719               986.8570
 Red. masses --      2.2950                 1.4296                 1.4468
 Frc consts  --      1.0727                 0.7911                 0.8302
 IR Inten    --      3.6928                 0.7622                 0.9656

                     19                     20                     21
                      A                      A                      A
 Frequencies --   1037.6863              1078.4208              1109.0057
 Red. masses --      2.4415                 1.8756                 1.7100
 Frc consts  --      1.5489                 1.2852                 1.2391
 IR Inten    --     11.0945               135.2845                12.7069

                     22                     23                     24
                      A                      A                      A
 Frequencies --   1143.2710              1193.2873              1237.9218
 Red. masses --      2.0637                 1.9019                 1.3396
 Frc consts  --      1.5892                 1.5956                 1.2095
 IR Inten    --      8.6300                11.7373                77.8319

                     25                     26                     27
                      A                      A                      A
 Frequencies --   1296.4057              1303.9863              1347.2263
 Red. masses --      1.2345                 1.3201                 1.2762
 Frc consts  --      1.2224                 1.3225                 1.3647
 IR Inten    --      2.9707                56.7047                 0.7006

                     28                     29                     30
                      A                      A                      A
 Frequencies --   1369.5079              1404.3228              1412.2633
 Red. masses --      1.5954                 1.5634                 1.3744
 Frc consts  --      1.7630                 1.8166                 1.6151
 IR Inten    --    116.4691                38.9535                21.2506

                     31                     32                     33
                      A                      A                      A
 Frequencies --   1419.4845              1487.7375              1494.5656
 Red. masses --      1.3024                 1.0625                 1.0453
 Frc consts  --      1.5462                 1.3856                 1.3757
 IR Inten    --     26.7034                 2.1702                 5.9397

                     34                     35                     36
                      A                      A                      A
 Frequencies --   1501.5900              1507.2718              1510.2904
 Red. masses --      1.0518                 1.0683                 1.0575
 Frc consts  --      1.3974                 1.4299                 1.4212
 IR Inten    --     10.3474                 5.4202                 3.0916

                     37                     38                     39
                      A                      A                      A
 Frequencies --   1760.1801              2975.1735              3020.6826
 Red. masses --      7.5317                 1.0811                 1.0615
 Frc consts  --     13.7485                 5.6382                 5.7068
 IR Inten    --    133.5497                21.6854                19.8454

                     40                     41                     42
                      A                      A                      A
 Frequencies --   3035.8759              3041.5011              3062.6107
 Red. masses --      1.0365                 1.0356                 1.0997
 Frc consts  --      5.6287                 5.6444                 6.0773
 IR Inten    --     24.0769                16.5705                10.6554

                     43                     44                     45
                      A                      A                      A
 Frequencies --   3102.7414              3107.6887              3110.8736
 Red. masses --      1.1008                 1.1012                 1.1016
 Frc consts  --      6.2436                 6.2660                 6.2811
 IR Inten    --     26.4626                34.0211                30.6917

                     46                     47                     48
                      A                      A                      A
 Frequencies --   3122.1202              3529.0612              3833.4501
 Red. masses --      1.1011                 1.0745                 1.0658
 Frc consts  --      6.3235                 7.8846                 9.2280
 IR Inten    --     22.6777                 1.6131                35.8412

 - Thermochemistry -
 -------------------
 Temperature   298.150 Kelvin.  Pressure   1.00000 Atm.
 Atom     1 has atomic number  6 and mass  12.00000

 Molecular mass:   101.08406 amu.
 Principal axes and moments of inertia in atomic units:
                           1         2         3
     Eigenvalues --   418.294441086.014021302.55449
           X            0.99985   0.01675   0.00456
           Y           -0.01680   0.99979   0.01188
           Z           -0.00436  -0.01195   0.99992
 This molecule is an asymmetric top.
 Rotational symmetry number  1.
 Rotational temperatures (Kelvin)      0.20706     0.07975     0.06650
 Rotational constants (GHZ):           4.31452     1.66180     1.38554
 Zero-point vibrational energy     417747.1 (Joules/Mol)
                                   99.84395 (Kcal/Mol)
 Warning -- explicit consideration of  11 degrees of freedom as
           vibrations may cause significant error
 Vibrational temperatures:     96.27   139.72   293.25   308.18   318.90
          (Kelvin)            406.15   508.21   525.47   558.51   698.83
                              872.83  1011.26  1115.66  1170.49  1240.49
                             1281.48  1394.42  1419.87  1493.00  1551.61
                             1595.61  1644.91  1716.87  1781.09  1865.24
                             1876.15  1938.36  1970.42  2020.51  2031.93
                             2042.32  2140.52  2150.35  2160.45  2168.63
                             2172.97  2532.51  4280.61  4346.09  4367.95
                             4376.04  4406.41  4464.15  4471.27  4475.85
                             4492.03  5077.53  5515.48

 Zero-point correction=                           0.159111 (Hartree/Particle)
 Thermal correction to Energy=                    0.167656
 Thermal correction to Enthalpy=                  0.168600
 Thermal correction to Gibbs Free Energy=         0.126253
 Sum of electronic and zero-point Energies=           -326.993104
 Sum of electronic and thermal Energies=              -326.984559
 Sum of electronic and thermal Enthalpies=            -326.983615
 Sum of electronic and thermal Free Energies=         -327.025963

                     E (Thermal)             CV                S
                      KCal/Mol        Cal/Mol-Kelvin    Cal/Mol-Kelvin
 Total                  105.206             30.768             89.129
 Electronic               0.000              0.000              0.000
 Translational            0.889              2.981             39.750
 Rotational               0.889              2.981             27.872
 Vibrational            103.428             24.807             21.506
 Vibration     1          0.598              1.970              4.242
 Vibration     2          0.603              1.951              3.511
 Vibration     3          0.639              1.834              2.098
 Vibration     4          0.644              1.819              2.008
 Vibration     5          0.648              1.808              1.946
 Vibration     6          0.681              1.706              1.520
 Vibration     7          0.729              1.569              1.152
 Vibration     8          0.738              1.544              1.100
 Vibration     9          0.756              1.495              1.007
 Vibration    10          0.842              1.282              0.695
 Vibration    11          0.965              1.018              0.438

                           ! Non-Optimized Parameters !
 Normal termination of Gaussian 16 at Mon May 31 18:37:02 2021.
