 Gaussian 16, Revision A.03,
 Gaussian 16:  ES64L-G16RevA.03 25-Dec-2016

 -----------------------------
 # opt freq b3lyp/6-31g(2df,p)
 -----------------------------

 -------------------
 Title Card Required
 -------------------
 Symbolic Z-matrix:
 Charge =  0 Multiplicity = 1

 SCF Done:  E(RB3LYP) =  -432.683895917     A.U. after   14 cycles
 SCF Done:  E(RB3LYP) =  -432.696807398     A.U. after   13 cycles
 SCF Done:  E(RB3LYP) =  -432.704280868     A.U. after   13 cycles
 SCF Done:  E(RB3LYP) =  -432.709043121     A.U. after   14 cycles
 SCF Done:  E(RB3LYP) =  -432.711129144     A.U. after   13 cycles
 SCF Done:  E(RB3LYP) =  -432.712026038     A.U. after   13 cycles
 SCF Done:  E(RB3LYP) =  -432.712655756     A.U. after   13 cycles
 SCF Done:  E(RB3LYP) =  -432.713276710     A.U. after   13 cycles
 SCF Done:  E(RB3LYP) =  -432.714213679     A.U. after   14 cycles
 SCF Done:  E(RB3LYP) =  -432.715456888     A.U. after   12 cycles
 SCF Done:  E(RB3LYP) =  -432.717561000     A.U. after   10 cycles
 SCF Done:  E(RB3LYP) =  -432.717563365     A.U. after   11 cycles
 SCF Done:  E(RB3LYP) =  -432.717566608     A.U. after   11 cycles
 SCF Done:  E(RB3LYP) =  -432.717570881     A.U. after   11 cycles
 SCF Done:  E(RB3LYP) =  -432.717573740     A.U. after   10 cycles
 SCF Done:  E(RB3LYP) =  -432.717574004     A.U. after   11 cycles
 SCF Done:  E(RB3LYP) =  -432.717574425     A.U. after    9 cycles
 SCF Done:  E(RB3LYP) =  -432.717574446     A.U. after    7 cycles
 SCF Done:  E(RB3LYP) =  -432.717574461     A.U. after    7 cycles
 Optimization completed.
    -- Stationary point found.
 Normal termination of Gaussian 16 at Mon May 31 23:38:37 2021.

 ----------------------------------------------------------------------
 #N Geom=AllCheck Guess=TCheck SCRF=Check GenChk RB3LYP/6-31G(2df,p) Fr
 eq
 ----------------------------------------------------------------------

 Structure from the checkpoint file:  "CCdCpNNdNpNNC.chk"
 -------------------
 Title Card Required
 -------------------
 Charge =  0 Multiplicity = 1

                         Standard orientation:
 ---------------------------------------------------------------------
 Center     Atomic      Atomic             Coordinates (Angstroms)
 Number     Number       Type             X           Y           Z
 ---------------------------------------------------------------------
      1          6           0        1.867742    2.064152   -0.361391
      2          6           0        0.478680    1.710832    0.082767
      3          6           0       -0.045701    0.499361    0.326779
      4          7           0        0.551836   -0.750303    0.173617
      5          7           0        1.855982   -0.948019   -0.010919
      6          7           0        2.140668   -2.165769   -0.154088
      7          7           0       -1.348557    0.352022    0.881232
      8          7           0       -2.126456   -0.674431    0.278587
      9          6           0       -2.866100   -0.241510   -0.905609
     10          1           0        1.849876    2.991028   -0.944568
     11          1           0        2.317839    1.278439   -0.969446
     12          1           0        2.546747    2.233187    0.486119
     13          1           0       -0.187503    2.545685    0.288134
     14          1           0       -0.061768   -1.562667    0.194975
     15          1           0        3.158234   -2.188926   -0.274562
     16          1           0       -1.825970    1.252102    0.869818
     17          1           0       -2.757392   -1.023022    0.990623
     18          1           0       -2.158284    0.027861   -1.694619
     19          1           0       -3.521114    0.626497   -0.718476
     20          1           0       -3.482701   -1.071694   -1.262280
 ---------------------------------------------------------------------

 SCF Done:  E(RB3LYP) =  -432.717574461     A.U. after    1 cycles

 The electronic state is 1-A.
 Alpha  occ. eigenvalues --  -14.40462 -14.37563 -14.36254 -14.36217 -14.33413
 Alpha  occ. eigenvalues --  -10.24421 -10.21623 -10.16617 -10.16351  -1.06191
 Alpha  occ. eigenvalues --   -0.99522  -0.90296  -0.82325  -0.75304  -0.69623
 Alpha  occ. eigenvalues --   -0.67477  -0.63757  -0.56991  -0.53287  -0.51478
 Alpha  occ. eigenvalues --   -0.48070  -0.47148  -0.44636  -0.43235  -0.42438
 Alpha  occ. eigenvalues --   -0.40286  -0.39981  -0.39138  -0.37668  -0.34507
 Alpha  occ. eigenvalues --   -0.33137  -0.26301  -0.25086  -0.23483  -0.18988
 Alpha virt. eigenvalues --   -0.01690   0.05811   0.07370   0.10600   0.11295
 Alpha virt. eigenvalues --    0.12368   0.13165   0.14328   0.15002   0.16513
 Alpha virt. eigenvalues --    0.17157   0.18080   0.19727   0.20450   0.22122

 Mulliken charges:
               1
     1  C   -0.436315
     2  C   -0.161492
     3  C    0.420715
     4  N   -0.240102
     5  N   -0.059387
     6  N   -0.356314
     7  N   -0.343082
     8  N   -0.269279
     9  C   -0.314396
    10  H    0.105334
    11  H    0.136331
    12  H    0.121969
    13  H    0.064680
    14  H    0.247404
    15  H    0.241581
    16  H    0.223275
    17  H    0.241592
    18  H    0.145657
    19  H    0.102233
    20  H    0.129595
 Sum of Mulliken charges =  -0.00000

 Dipole moment (field-independent basis, Debye):
    X=             -2.8668    Y=              0.9682    Z=             -0.2763  Tot=              3.0385
 Quadrupole moment (field-independent basis, Debye-Ang):
   XX=            -44.3566   YY=            -56.4175   ZZ=            -55.8847
   XY=              0.2708   XZ=             -1.1698   YZ=             -0.0517

  Exact polarizability: 106.185  -3.386 105.457  -4.289   0.772  54.435
 Approx polarizability: 138.916  -9.172 167.119 -10.266   0.842  82.898

                      1                      2                      3
                      A                      A                      A
 Frequencies --     47.4406                53.8552                66.7500
 Red. masses --      2.8890                 1.2970                 3.1742
 Frc consts  --      0.0038                 0.0022                 0.0083
 IR Inten    --      1.0547                 0.5867                 2.0961

                      4                      5                      6
                      A                      A                      A
 Frequencies --    103.7406               145.4207               184.2662
 Red. masses --      3.0386                 5.4093                 1.8983
 Frc consts  --      0.0193                 0.0674                 0.0380
 IR Inten    --      0.6445                 0.8572                 0.3903

                      7                      8                      9
                      A                      A                      A
 Frequencies --    224.6599               243.7541               280.3977
 Red. masses --      1.5477                 2.8657                 2.4891
 Frc consts  --      0.0460                 0.1003                 0.1153
 IR Inten    --      0.2222                 4.0957                 2.6469

                     10                     11                     12
                      A                      A                      A
 Frequencies --    363.4380               433.9240               459.8312
 Red. masses --      3.8414                 2.4837                 3.9503
 Frc consts  --      0.2990                 0.2755                 0.4921
 IR Inten    --      4.4450                 6.0188                 2.5438

                     13                     14                     15
                      A                      A                      A
 Frequencies --    578.5401               593.0130               657.9641
 Red. masses --      4.6413                 4.0890                 2.1699
 Frc consts  --      0.9153                 0.8472                 0.5535
 IR Inten    --     32.1205                11.3686                26.7398

                     16                     17                     18
                      A                      A                      A
 Frequencies --    716.7142               729.1035               801.2997
 Red. masses --      1.5061                 1.4704                 1.6204
 Frc consts  --      0.4558                 0.4605                 0.6130
 IR Inten    --     56.9356                18.7068                82.8935

                     19                     20                     21
                      A                      A                      A
 Frequencies --    880.0983               919.2976               923.5383
 Red. masses --      1.4981                 1.2676                 1.6917
 Frc consts  --      0.6837                 0.6311                 0.8501
 IR Inten    --    134.0040                20.3524                28.7345

                     22                     23                     24
                      A                      A                      A
 Frequencies --    975.7809              1050.5527              1081.9999
 Red. masses --      1.8869                 1.4260                 2.0638
 Frc consts  --      1.0585                 0.9273                 1.4236
 IR Inten    --      6.6489                10.6906                18.3542

                     25                     26                     27
                      A                      A                      A
 Frequencies --   1085.9657              1140.7056              1150.1527
 Red. masses --      3.0486                 2.1012                 1.9646
 Frc consts  --      2.1183                 1.6109                 1.5312
 IR Inten    --      7.8575                 9.2688                 1.5433

                     28                     29                     30
                      A                      A                      A
 Frequencies --   1193.0101              1220.0683              1248.6415
 Red. masses --      2.7909                 1.8042                 2.1515
 Frc consts  --      2.3404                 1.5823                 1.9764
 IR Inten    --    208.4214                29.8963                26.3901

                     31                     32                     33
                      A                      A                      A
 Frequencies --   1356.7174              1417.9879              1445.0101
 Red. masses --      1.3068                 1.2221                 1.1747
 Frc consts  --      1.4172                 1.4478                 1.4452
 IR Inten    --      8.6249                 3.3428                 0.8166

                     34                     35                     36
                      A                      A                      A
 Frequencies --   1465.9500              1476.5834              1485.0129
 Red. masses --      1.2392                 1.0999                 1.3138
 Frc consts  --      1.5690                 1.4129                 1.7070
 IR Inten    --     21.8160                 5.7512                 7.7784

                     37                     38                     39
                      A                      A                      A
 Frequencies --   1490.3086              1492.3283              1499.1260
 Red. masses --      1.1580                 1.0892                 1.1128
 Frc consts  --      1.5154                 1.4291                 1.4734
 IR Inten    --      5.1899                 2.8132                 5.0560

                     40                     41                     42
                      A                      A                      A
 Frequencies --   1526.9129              1534.3996              1563.3826
 Red. masses --      1.4045                 1.6878                 3.5204
 Frc consts  --      1.9292                 2.3412                 5.0696
 IR Inten    --     20.5218                 1.4616               368.2940

                     43                     44                     45
                      A                      A                      A
 Frequencies --   1740.3093              2962.4987              3008.7214
 Red. masses --      6.6699                 1.0554                 1.0507
 Frc consts  --     11.9021                 5.4572                 5.6039
 IR Inten    --     98.1418                70.3917                50.2419

                     46                     47                     48
                      A                      A                      A
 Frequencies --   3066.5829              3076.7980              3120.8018
 Red. masses --      1.0880                 1.0765                 1.1038
 Frc consts  --      6.0282                 6.0044                 6.3342
 IR Inten    --     31.4317                22.9573                16.8406

                     49                     50                     51
                      A                      A                      A
 Frequencies --   3130.5698              3146.7698              3397.0029
 Red. masses --      1.0916                 1.0902                 1.0746
 Frc consts  --      6.3035                 6.3605                 7.3063
 IR Inten    --      4.0624                25.9319                 0.0576

                     52                     53                     54
                      A                      A                      A
 Frequencies --   3452.2553              3486.6288              3536.3585
 Red. masses --      1.0739                 1.0739                 1.0756
 Frc consts  --      7.5407                 7.6919                 7.9250
 IR Inten    --      5.1121                47.1490                 2.3129

 - Thermochemistry -
 -------------------
 Temperature   298.150 Kelvin.  Pressure   1.00000 Atm.
 Atom     1 has atomic number  6 and mass  12.00000

 Molecular mass:   129.10145 amu.
 Principal axes and moments of inertia in atomic units:
                           1         2         3
     Eigenvalues --   899.091741604.528052257.58127
           X            0.99901   0.04405   0.00686
           Y           -0.04401   0.99901  -0.00584
           Z           -0.00711   0.00553   0.99996
 This molecule is an asymmetric top.
 Rotational symmetry number  1.
 Warning -- assumption of classical behavior for rotation
           may cause significant error
 Rotational temperatures (Kelvin)      0.09633     0.05398     0.03837
 Rotational constants (GHZ):           2.00729     1.12478     0.79941
 Zero-point vibrational energy     445207.9 (Joules/Mol)
                                  106.40723 (Kcal/Mol)
 Warning -- explicit consideration of  14 degrees of freedom as
           vibrations may cause significant error
 Vibrational temperatures:     68.26    77.49    96.04   149.26   209.23
          (Kelvin)            265.12   323.24   350.71   403.43   522.91
                              624.32   661.59   832.39   853.21   946.66
                             1031.19  1049.02  1152.89  1266.27  1322.66
                             1328.77  1403.93  1511.51  1556.76  1562.46
                             1641.22  1654.81  1716.48  1755.41  1796.52
                             1952.01  2040.17  2079.05  2109.18  2124.47
                             2136.60  2144.22  2147.13  2156.91  2196.89
                             2207.66  2249.36  2503.92  4262.37  4328.88
                             4412.13  4426.83  4490.14  4504.19  4527.50
                             4887.53  4967.03  5016.48  5088.03

 Zero-point correction=                           0.169571 (Hartree/Particle)
 Thermal correction to Energy=                    0.180369
 Thermal correction to Enthalpy=                  0.181313
 Thermal correction to Gibbs Free Energy=         0.132180
 Sum of electronic and zero-point Energies=           -432.548004
 Sum of electronic and thermal Energies=              -432.537206
 Sum of electronic and thermal Enthalpies=            -432.536262
 Sum of electronic and thermal Free Energies=         -432.585394

                     E (Thermal)             CV                S
                      KCal/Mol        Cal/Mol-Kelvin    Cal/Mol-Kelvin
 Total                  113.183             37.294            103.408
 Electronic               0.000              0.000              0.000
 Translational            0.889              2.981             40.479
 Rotational               0.889              2.981             29.567
 Vibrational            111.406             31.332             33.362
 Vibration     1          0.595              1.979              4.921
 Vibration     2          0.596              1.976              4.671
 Vibration     3          0.598              1.970              4.247
 Vibration     4          0.605              1.946              3.383
 Vibration     5          0.617              1.908              2.731
 Vibration     6          0.631              1.861              2.285
 Vibration     7          0.649              1.803              1.921
 Vibration     8          0.659              1.773              1.775
 Vibration     9          0.680              1.710              1.531
 Vibration    10          0.737              1.548              1.107
 Vibration    11          0.795              1.396              0.846
 Vibration    12          0.818              1.339              0.767
 Vibration    13          0.935              1.078              0.488
 Vibration    14          0.951              1.047              0.462

 Optimization completed.
    -- Stationary point found.
 Normal termination of Gaussian 16 at Tue Jun  1 00:10:09 2021.
