 Gaussian 16, Revision A.03,
 Gaussian 16:  ES64L-G16RevA.03 25-Dec-2016

 -----------------------------
 # opt freq b3lyp/6-31g(2df,p)
 -----------------------------

 -------------------
 Title Card Required
 -------------------
 Symbolic Z-matrix:
 Charge =  0 Multiplicity = 1

 SCF Done:  E(RB3LYP) =  -368.609607102     A.U. after   13 cycles
 SCF Done:  E(RB3LYP) =  -368.614557365     A.U. after   11 cycles
 SCF Done:  E(RB3LYP) =  -368.615398694     A.U. after   10 cycles
 SCF Done:  E(RB3LYP) =  -368.616118993     A.U. after   11 cycles
 SCF Done:  E(RB3LYP) =  -368.616595635     A.U. after   11 cycles
 SCF Done:  E(RB3LYP) =  -368.616924192     A.U. after   10 cycles
 SCF Done:  E(RB3LYP) =  -368.616944757     A.U. after    8 cycles
 SCF Done:  E(RB3LYP) =  -368.616976742     A.U. after    9 cycles
 SCF Done:  E(RB3LYP) =  -368.617100893     A.U. after   10 cycles
 SCF Done:  E(RB3LYP) =  -368.617246627     A.U. after    9 cycles
 SCF Done:  E(RB3LYP) =  -368.617824422     A.U. after   10 cycles
 SCF Done:  E(RB3LYP) =  -368.619212675     A.U. after   11 cycles
 SCF Done:  E(RB3LYP) =  -368.620122892     A.U. after   10 cycles
 SCF Done:  E(RB3LYP) =  -368.620238794     A.U. after    9 cycles
 SCF Done:  E(RB3LYP) =  -368.620216547     A.U. after    9 cycles
 SCF Done:  E(RB3LYP) =  -368.620273272     A.U. after    9 cycles
 SCF Done:  E(RB3LYP) =  -368.620279279     A.U. after    7 cycles
 SCF Done:  E(RB3LYP) =  -368.620280083     A.U. after    7 cycles
 SCF Done:  E(RB3LYP) =  -368.620280185     A.U. after    7 cycles
 Optimization completed.
    -- Stationary point found.
 Normal termination of Gaussian 16 at Mon May 31 19:30:07 2021.

 ----------------------------------------------------------------------
 #N Geom=AllCheck Guess=TCheck SCRF=Check GenChk RB3LYP/6-31G(2df,p) Fr
 eq
 ----------------------------------------------------------------------

 Structure from the checkpoint file:  "CCdCNC1pCpCCC1.chk"
 -------------------
 Title Card Required
 -------------------
 Charge =  0 Multiplicity = 1

                         Standard orientation:
 ---------------------------------------------------------------------
 Center     Atomic      Atomic             Coordinates (Angstroms)
 Number     Number       Type             X           Y           Z
 ---------------------------------------------------------------------
      1          6           0        3.923388   -0.347422    0.296524
      2          6           0        2.693855    0.157654   -0.399640
      3          6           0        1.449445   -0.232118   -0.102842
      4          7           0        0.281119    0.102268   -0.785181
      5          6           0       -0.958170    0.264156   -0.028935
      6          6           0       -0.921073    1.465967    0.922836
      7          6           0       -2.237473    0.243692   -0.916328
      8          6           0       -2.883521   -0.758069    0.077767
      9          6           0       -1.473058   -1.036848    0.662961
     10          1           0        4.592762   -0.887477   -0.386877
     11          1           0        3.665068   -1.032613    1.110713
     12          1           0        4.514828    0.471592    0.726786
     13          1           0        2.845220    0.867018   -1.213022
     14          1           0        1.282783   -0.935725    0.711511
     15          1           0        0.417061    0.845315   -1.461638
     16          1           0       -0.766536    2.395544    0.362445
     17          1           0       -0.100208    1.364271    1.640180
     18          1           0       -1.856144    1.565206    1.484483
     19          1           0       -2.025272   -0.219189   -1.883326
     20          1           0       -2.744230    1.199121   -1.077632
     21          1           0       -3.416814   -1.607880   -0.352277
     22          1           0       -3.545181   -0.266927    0.795938
     23          1           0       -1.014901   -1.921577    0.214738
     24          1           0       -1.376621   -1.094625    1.750196
 ---------------------------------------------------------------------

 SCF Done:  E(RB3LYP) =  -368.620280185     A.U. after    1 cycles

 The electronic state is 1-A.
 Alpha  occ. eigenvalues --  -14.32240 -10.21859 -10.19482 -10.18097 -10.17725
 Alpha  occ. eigenvalues --  -10.17671 -10.17242 -10.16838 -10.15556  -0.91944
 Alpha  occ. eigenvalues --   -0.83098  -0.75668  -0.71399  -0.66639  -0.65506
 Alpha  occ. eigenvalues --   -0.61213  -0.56167  -0.53064  -0.49281  -0.47286
 Alpha  occ. eigenvalues --   -0.46823  -0.41736  -0.41541  -0.39596  -0.39117
 Alpha  occ. eigenvalues --   -0.38622  -0.37887  -0.36968  -0.34039  -0.33374
 Alpha  occ. eigenvalues --   -0.33053  -0.32183  -0.29812  -0.28207  -0.18331
 Alpha virt. eigenvalues --    0.05297   0.08432   0.10088   0.10585   0.11694
 Alpha virt. eigenvalues --    0.12706   0.13561   0.15770   0.16026   0.16541
 Alpha virt. eigenvalues --    0.16701   0.17852   0.18602   0.18837   0.19457

 Mulliken charges:
               1
     1  C   -0.412710
     2  C   -0.135518
     3  C    0.058766
     4  N   -0.341938
     5  C    0.327916
     6  C   -0.430772
     7  C   -0.262440
     8  C   -0.220223
     9  C   -0.234178
    10  H    0.114984
    11  H    0.109724
    12  H    0.113586
    13  H    0.057269
    14  H    0.090704
    15  H    0.220398
    16  H    0.107040
    17  H    0.121424
    18  H    0.112147
    19  H    0.104083
    20  H    0.091620
    21  H    0.101300
    22  H    0.103884
    23  H    0.109317
    24  H    0.093615
 Sum of Mulliken charges =  -0.00000

 Dipole moment (field-independent basis, Debye):
    X=             -0.9808    Y=              0.5873    Z=              0.1239  Tot=              1.1499
 Quadrupole moment (field-independent basis, Debye-Ang):
   XX=            -58.1452   YY=            -56.7957   ZZ=            -56.5552
   XY=              0.1850   XZ=             -0.1588   YZ=             -2.2698

  Exact polarizability: 130.399   1.919  79.509   0.250  -4.461  78.752
 Approx polarizability: 164.041   5.070 115.810  -1.324  -8.240 118.319

                      1                      2                      3
                      A                      A                      A
 Frequencies --     62.2656                82.3245               122.4678
 Red. masses --      3.1797                 2.1266                 1.9380
 Frc consts  --      0.0073                 0.0085                 0.0171
 IR Inten    --      0.4151                 1.4279                 0.5619

                      4                      5                      6
                      A                      A                      A
 Frequencies --    142.5920               203.8149               258.8709
 Red. masses --      2.0588                 1.3446                 1.2008
 Frc consts  --      0.0247                 0.0329                 0.0474
 IR Inten    --      0.6178                 0.9427                 1.4859

                      7                      8                      9
                      A                      A                      A
 Frequencies --    266.0898               285.9431               322.1147
 Red. masses --      1.8628                 2.1705                 2.5251
 Frc consts  --      0.0777                 0.1046                 0.1544
 IR Inten    --      3.3325                 2.0544                 1.5971

                     10                     11                     12
                      A                      A                      A
 Frequencies --    364.3411               368.6420               466.1435
 Red. masses --      2.3947                 2.5561                 2.2736
 Frc consts  --      0.1873                 0.2047                 0.2911
 IR Inten    --      0.4943                 3.5454                 3.8102

                     13                     14                     15
                      A                      A                      A
 Frequencies --    525.5298               637.3794               686.7198
 Red. masses --      2.9857                 1.8632                 1.5686
 Frc consts  --      0.4858                 0.4460                 0.4358
 IR Inten    --      1.9605                34.8652                50.4225

                     16                     17                     18
                      A                      A                      A
 Frequencies --    732.0110               798.1829               811.5049
 Red. masses --      1.9355                 1.2523                 1.6919
 Frc consts  --      0.6111                 0.4701                 0.6565
 IR Inten    --      6.2188                 2.3604                16.3602

                     19                     20                     21
                      A                      A                      A
 Frequencies --    865.0445               910.2883               919.3209
 Red. masses --      1.9664                 2.0130                 1.8414
 Frc consts  --      0.8669                 0.9828                 0.9169
 IR Inten    --      0.3646                 1.1240                 0.7086

                     22                     23                     24
                      A                      A                      A
 Frequencies --    942.2340               948.0444               973.5116
 Red. masses --      2.4269                 1.4808                 1.9876
 Frc consts  --      1.2694                 0.7842                 1.1098
 IR Inten    --      1.4961                 7.8548                 6.9832

                     25                     26                     27
                      A                      A                      A
 Frequencies --    991.8144               994.0418              1055.8201
 Red. masses --      2.1103                 1.1461                 1.2434
 Frc consts  --      1.2231                 0.6672                 0.8166
 IR Inten    --      2.3655                26.2945                 3.0684

                     28                     29                     30
                      A                      A                      A
 Frequencies --   1062.3717              1117.4693              1163.3883
 Red. masses --      1.4236                 2.2448                 2.0853
 Frc consts  --      0.9467                 1.6515                 1.6629
 IR Inten    --      1.3446                 0.0107                 8.5519

                     31                     32                     33
                      A                      A                      A
 Frequencies --   1189.5903              1203.6249              1227.9478
 Red. masses --      2.2633                 1.3900                 2.1027
 Frc consts  --      1.8870                 1.1865                 1.8680
 IR Inten    --      7.8872                 8.3048                58.4638

                     34                     35                     36
                      A                      A                      A
 Frequencies --   1248.6237              1257.5640              1273.4015
 Red. masses --      2.8769                 1.2283                 1.3664
 Frc consts  --      2.6427                 1.1445                 1.3055
 IR Inten    --    142.2996                 0.3516                 1.7694

                     37                     38                     39
                      A                      A                      A
 Frequencies --   1284.6841              1304.2010              1312.3385
 Red. masses --      1.7563                 1.6360                 1.6072
 Frc consts  --      1.7078                 1.6396                 1.6308
 IR Inten    --      6.0092                29.7334                34.5845

                     40                     41                     42
                      A                      A                      A
 Frequencies --   1343.5241              1404.8345              1415.7811
 Red. masses --      1.2360                 1.2500                 1.2321
 Frc consts  --      1.3145                 1.4534                 1.4551
 IR Inten    --      3.3707                 8.4168                 9.4426

                     43                     44                     45
                      A                      A                      A
 Frequencies --   1466.2038              1471.9121              1478.2401
 Red. masses --      1.2525                 1.1425                 1.0449
 Frc consts  --      1.5865                 1.4584                 1.3452
 IR Inten    --     14.9521                 2.9210                 3.0665

                     46                     47                     48
                      A                      A                      A
 Frequencies --   1480.4748              1492.3688              1493.4765
 Red. masses --      1.0765                 1.0770                 1.0612
 Frc consts  --      1.3902                 1.4133                 1.3946
 IR Inten    --      0.6564                 3.7550                 1.4978

                     49                     50                     51
                      A                      A                      A
 Frequencies --   1505.5396              1506.6087              1741.7054
 Red. masses --      1.1232                 1.1031                 5.2506
 Frc consts  --      1.5000                 1.4753                 9.3844
 IR Inten    --      6.8074                 4.9112               104.6032

                     52                     53                     54
                      A                      A                      A
 Frequencies --   3003.9017              3022.3765              3043.2805
 Red. masses --      1.0380                 1.0351                 1.0991
 Frc consts  --      5.5182                 5.5711                 5.9973
 IR Inten    --     73.8521                19.5924                32.8067

                     55                     56                     57
                      A                      A                      A
 Frequencies --   3053.6329              3058.3916              3066.8029
 Red. masses --      1.0573                 1.0578                 1.0620
 Frc consts  --      5.8087                 5.8297                 5.8848
 IR Inten    --     50.8589                19.5644                27.3224

                     58                     59                     60
                      A                      A                      A
 Frequencies --   3088.7136              3089.7793              3101.4693
 Red. masses --      1.0968                 1.1006                 1.1021
 Frc consts  --      6.1649                 6.1907                 6.2463
 IR Inten    --     18.8391                27.1860                18.2560

                     61                     62                     63
                      A                      A                      A
 Frequencies --   3102.6721              3113.3150              3124.2997
 Red. masses --      1.1067                 1.1081                 1.0891
 Frc consts  --      6.2769                 6.3284                 6.2633
 IR Inten    --     20.2785                 7.2748                27.8880

                     64                     65                     66
                      A                      A                      A
 Frequencies --   3126.8454              3144.5294              3536.3577
 Red. masses --      1.1071                 1.0870                 1.0738
 Frc consts  --      6.3775                 6.3328                 7.9118
 IR Inten    --     55.4996                18.2853                 2.2425

 - Thermochemistry -
 -------------------
 Temperature   298.150 Kelvin.  Pressure   1.00000 Atm.
 Atom     1 has atomic number  6 and mass  12.00000

 Molecular mass:   125.12045 amu.
 Principal axes and moments of inertia in atomic units:
                           1         2         3
     Eigenvalues --   465.882612395.450682453.73214
           X            0.99999  -0.00339   0.00332
           Y            0.00355   0.99872  -0.05052
           Z           -0.00314   0.05053   0.99872
 This molecule is an asymmetric top.
 Rotational symmetry number  1.
 Warning -- assumption of classical behavior for rotation
           may cause significant error
 Rotational temperatures (Kelvin)      0.18591     0.03616     0.03530
 Rotational constants (GHZ):           3.87381     0.75340     0.73551
 Zero-point vibrational energy     567384.6 (Joules/Mol)
                                  135.60818 (Kcal/Mol)
 Warning -- explicit consideration of  13 degrees of freedom as
           vibrations may cause significant error
 Vibrational temperatures:     89.59   118.45   176.20   205.16   293.24
          (Kelvin)            372.46   382.84   411.41   463.45   524.21
                              530.39   670.68   756.12   917.05   988.04
                             1053.20  1148.41  1167.57  1244.61  1309.70
                             1322.70  1355.66  1364.02  1400.67  1427.00
                             1430.20  1519.09  1528.52  1607.79  1673.86
                             1711.56  1731.75  1766.74  1796.49  1809.35
                             1832.14  1848.37  1876.45  1888.16  1933.03
                             2021.24  2036.99  2109.54  2117.75  2126.86
                             2130.07  2147.19  2148.78  2166.14  2167.67
                             2505.93  4321.94  4348.53  4378.60  4393.50
                             4400.34  4412.45  4443.97  4445.50  4462.32
                             4464.05  4479.37  4495.17  4498.83  4524.28
                             5088.03

 Zero-point correction=                           0.216105 (Hartree/Particle)
 Thermal correction to Energy=                    0.226507
 Thermal correction to Enthalpy=                  0.227452
 Thermal correction to Gibbs Free Energy=         0.180600
 Sum of electronic and zero-point Energies=           -368.404175
 Sum of electronic and thermal Energies=              -368.393773
 Sum of electronic and thermal Enthalpies=            -368.392829
 Sum of electronic and thermal Free Energies=         -368.439680

                     E (Thermal)             CV                S
                      KCal/Mol        Cal/Mol-Kelvin    Cal/Mol-Kelvin
 Total                  142.136             39.094             98.607
 Electronic               0.000              0.000              0.000
 Translational            0.889              2.981             40.386
 Rotational               0.889              2.981             29.394
 Vibrational            140.358             33.133             28.827
 Vibration     1          0.597              1.972              4.384
 Vibration     2          0.600              1.961              3.835
 Vibration     3          0.610              1.930              3.061
 Vibration     4          0.616              1.911              2.769
 Vibration     5          0.639              1.834              2.098
 Vibration     6          0.668              1.748              1.669
 Vibration     7          0.672              1.735              1.621
 Vibration     8          0.684              1.700              1.498
 Vibration     9          0.707              1.631              1.299
 Vibration    10          0.738              1.546              1.104
 Vibration    11          0.741              1.537              1.085
 Vibration    12          0.824              1.325              0.748
 Vibration    13          0.880              1.193              0.597

                           ! Non-Optimized Parameters !
 Normal termination of Gaussian 16 at Mon May 31 20:03:52 2021.
