 Gaussian 16, Revision A.03,
 Gaussian 16:  ES64L-G16RevA.03 25-Dec-2016

 -----------------------------
 # opt freq b3lyp/6-31g(2df,p)
 -----------------------------

 -------------------
 Title Card Required
 -------------------
 Symbolic Z-matrix:
 Charge =  0 Multiplicity = 1

 SCF Done:  E(RB3LYP) =  -416.676647808     A.U. after   14 cycles
 SCF Done:  E(RB3LYP) =  -416.686518591     A.U. after   13 cycles
 SCF Done:  E(RB3LYP) =  -416.688254188     A.U. after   11 cycles
 SCF Done:  E(RB3LYP) =  -416.688495509     A.U. after   11 cycles
 SCF Done:  E(RB3LYP) =  -416.688520455     A.U. after    9 cycles
 SCF Done:  E(RB3LYP) =  -416.688522103     A.U. after    8 cycles
 SCF Done:  E(RB3LYP) =  -416.688522281     A.U. after    7 cycles
 Optimization completed.
    -- Stationary point found.
 Normal termination of Gaussian 16 at Tue Jun  1 20:50:53 2021.

 ----------------------------------------------------------------------
 #N Geom=AllCheck Guess=TCheck SCRF=Check GenChk RB3LYP/6-31G(2df,p) Fr
 eq
 ----------------------------------------------------------------------

 Structure from the checkpoint file:  "CCdCNpCpCNdNN.chk"
 -------------------
 Title Card Required
 -------------------
 Charge =  0 Multiplicity = 1

                         Standard orientation:
 ---------------------------------------------------------------------
 Center     Atomic      Atomic             Coordinates (Angstroms)
 Number     Number       Type             X           Y           Z
 ---------------------------------------------------------------------
      1          6           0       -4.205050   -0.588107    0.000028
      2          6           0       -2.930543    0.226346    0.000012
      3          6           0       -1.712005   -0.336247    0.000003
      4          7           0       -0.457952    0.237052   -0.000007
      5          6           0       -0.249238    1.670275   -0.000021
      6          6           0        0.671553   -0.679412   -0.000056
      7          7           0        1.926215    0.070847    0.000007
      8          7           0        2.914462   -0.692598   -0.000012
      9          7           0        4.081701   -0.054993    0.000047
     10          1           0       -5.080125    0.068046    0.000034
     11          1           0       -4.296815   -1.235284    0.881962
     12          1           0       -4.296832   -1.235292   -0.881899
     13          1           0       -3.044022    1.304963    0.000008
     14          1           0       -1.657843   -1.425331    0.000004
     15          1           0       -1.219140    2.165481    0.000017
     16          1           0        0.305586    2.005447   -0.883863
     17          1           0        0.305657    2.005450    0.883774
     18          1           0        0.634574   -1.333399   -0.886503
     19          1           0        0.634550   -1.333512    0.886305
     20          1           0        4.907115   -0.622929    0.000025
     21          1           0        4.108014    0.957071    0.000093
 ---------------------------------------------------------------------

 SCF Done:  E(RB3LYP) =  -416.688522281     A.U. after    1 cycles

 The electronic state is 1-A.
 Alpha  occ. eigenvalues --  -14.41194 -14.37701 -14.34865 -14.32755 -10.23392
 Alpha  occ. eigenvalues --  -10.19626 -10.19076 -10.16041 -10.14274  -1.06959
 Alpha  occ. eigenvalues --   -0.93553  -0.89077  -0.75750  -0.72347  -0.69343
 Alpha  occ. eigenvalues --   -0.64085  -0.59771  -0.55156  -0.53696  -0.50544
 Alpha  occ. eigenvalues --   -0.47493  -0.46409  -0.44713  -0.42239  -0.39129
 Alpha  occ. eigenvalues --   -0.38938  -0.38570  -0.37803  -0.37484  -0.35541
 Alpha  occ. eigenvalues --   -0.32732  -0.28963  -0.24503  -0.24230  -0.16272
 Alpha virt. eigenvalues --   -0.01898   0.05779   0.07420   0.11347   0.11773
 Alpha virt. eigenvalues --    0.13158   0.13369   0.15107   0.15854   0.17663
 Alpha virt. eigenvalues --    0.18054   0.18306   0.19588   0.20942   0.22002

 Mulliken charges:
               1
     1  C   -0.417041
     2  C   -0.193172
     3  C    0.089572
     4  N   -0.079889
     5  C   -0.317191
     6  C   -0.055986
     7  N   -0.226030
     8  N   -0.024578
     9  N   -0.372081
    10  H    0.111209
    11  H    0.113723
    12  H    0.113723
    13  H    0.066856
    14  H    0.078628
    15  H    0.128784
    16  H    0.120208
    17  H    0.120213
    18  H    0.109360
    19  H    0.109364
    20  H    0.275023
    21  H    0.249305
 Sum of Mulliken charges =  -0.00000

 Dipole moment (field-independent basis, Debye):
    X=              3.4774    Y=              0.3280    Z=             -0.0000  Tot=              3.4929
 Quadrupole moment (field-independent basis, Debye-Ang):
   XX=            -41.6122   YY=            -52.8648   ZZ=            -57.2998
   XY=              1.1639   XZ=              0.0002   YZ=              0.0000

  Exact polarizability: 149.044   2.489  77.603   0.000   0.000  53.039
 Approx polarizability: 190.835  -5.700 113.345   0.000   0.001  80.672

 ******    5 imaginary frequencies (negative Signs) ******

                      1                      2                      3
                      A                      A                      A
 Frequencies --   -443.3820              -218.8985              -192.4578
 Red. masses --      1.2697                 1.1937                 1.1961
 Frc consts  --      0.1471                 0.0337                 0.0261
 IR Inten    --    186.1018                 0.0678                 0.3862

                      4                      5                      6
                      A                      A                      A
 Frequencies --   -140.4255               -93.2922                59.5369
 Red. masses --      1.7053                 3.4851                 3.4961
 Frc consts  --      0.0198                 0.0179                 0.0073
 IR Inten    --      3.4033                 0.7073                 3.8957

                      7                      8                      9
                      A                      A                      A
 Frequencies --    111.0771               125.2025               218.5030
 Red. masses --      3.6802                 1.6225                 3.2638
 Frc consts  --      0.0268                 0.0150                 0.0918
 IR Inten    --      0.5990                 0.0655                 1.4719

                     10                     11                     12
                      A                      A                      A
 Frequencies --    263.3927               301.1559               356.5420
 Red. masses --      3.0965                 3.3573                 3.9777
 Frc consts  --      0.1266                 0.1794                 0.2979
 IR Inten    --      5.8393                 7.6328                 0.6651

                     13                     14                     15
                      A                      A                      A
 Frequencies --    364.0653               392.0313               641.4897
 Red. masses --      4.0864                 3.2641                 3.0692
 Frc consts  --      0.3191                 0.2956                 0.7441
 IR Inten    --      5.6237                11.6659                 3.2766

                     16                     17                     18
                      A                      A                      A
 Frequencies --    650.8643               652.1275               753.2929
 Red. masses --      3.5927                 1.2969                 1.7619
 Frc consts  --      0.8967                 0.3249                 0.5890
 IR Inten    --     10.0865                 1.1139                16.5635

                     19                     20                     21
                      A                      A                      A
 Frequencies --    869.6239               970.6474               972.4389
 Red. masses --      3.1364                 1.1530                 1.8274
 Frc consts  --      1.3975                 0.6400                 1.0181
 IR Inten    --      1.0110                15.0427                32.3366

                     22                     23                     24
                      A                      A                      A
 Frequencies --   1041.7026              1050.8286              1051.3012
 Red. masses --      1.5729                 2.8898                 1.3578
 Frc consts  --      1.0056                 1.8801                 0.8842
 IR Inten    --      6.6561                20.8404                 0.9049

                     25                     26                     27
                      A                      A                      A
 Frequencies --   1085.2771              1113.9963              1148.3888
 Red. masses --      1.9834                 2.2819                 1.2796
 Frc consts  --      1.3764                 1.6684                 0.9943
 IR Inten    --    151.5019                58.0523                 0.7019

                     28                     29                     30
                      A                      A                      A
 Frequencies --   1207.0698              1243.3856              1258.1441
 Red. masses --      3.3243                 1.0472                 2.0163
 Frc consts  --      2.8537                 0.9539                 1.8805
 IR Inten    --     88.2042                 0.0134                29.9217

                     31                     32                     33
                      A                      A                      A
 Frequencies --   1279.1694              1336.5029              1362.4652
 Red. masses --      2.1302                 1.8218                 2.0917
 Frc consts  --      2.0537                 1.9173                 2.2877
 IR Inten    --     80.0212                 6.9085                88.7707

                     34                     35                     36
                      A                      A                      A
 Frequencies --   1392.1723              1414.1644              1440.2997
 Red. masses --      1.5480                 1.2832                 1.6495
 Frc consts  --      1.7677                 1.5120                 2.0160
 IR Inten    --     24.8756                22.3390               198.4356

                     37                     38                     39
                      A                      A                      A
 Frequencies --   1468.1887              1476.5200              1491.5677
 Red. masses --      1.1543                 1.0422                 1.0443
 Frc consts  --      1.4660                 1.3387                 1.3689
 IR Inten    --     12.0989                 2.9807                 3.0016

                     40                     41                     42
                      A                      A                      A
 Frequencies --   1500.4598              1508.0924              1517.3556
 Red. masses --      1.0471                 1.0794                 1.0895
 Frc consts  --      1.3890                 1.4464                 1.4780
 IR Inten    --      3.3395                34.4830                 6.3247

                     43                     44                     45
                      A                      A                      A
 Frequencies --   1596.2413              1623.8875              1730.7559
 Red. masses --      1.7848                 2.4247                 5.1903
 Frc consts  --      2.6793                 3.7673                 9.1604
 IR Inten    --    194.2002                34.2375               193.7934

                     46                     47                     48
                      A                      A                      A
 Frequencies --   2946.3021              2970.3322              3007.4228
 Red. masses --      1.0538                 1.1081                 1.0399
 Frc consts  --      5.3895                 5.7601                 5.5418
 IR Inten    --     64.5214                49.3454                87.6087

                     49                     50                     51
                      A                      A                      A
 Frequencies --   3021.9342              3047.3523              3063.2873
 Red. masses --      1.0394                 1.1005                 1.1031
 Frc consts  --      5.5922                 6.0214                 6.0990
 IR Inten    --     56.9346                35.4943                36.4915

                     52                     53                     54
                      A                      A                      A
 Frequencies --   3097.2355              3122.2014              3153.1578
 Red. masses --      1.0950                 1.0874                 1.0945
 Frc consts  --      6.1891                 6.2454                 6.4114
 IR Inten    --     23.5025                15.8244                19.6394

                     55                     56                     57
                      A                      A                      A
 Frequencies --   3174.9041              3525.0163              3761.3452
 Red. masses --      1.0873                 1.0466                 1.1006
 Frc consts  --      6.4573                 7.6623                 9.1739
 IR Inten    --     31.4895                20.2625                82.7949

 - Thermochemistry -
 -------------------
 Temperature   298.150 Kelvin.  Pressure   1.00000 Atm.
 Atom     1 has atomic number  6 and mass  12.00000

 Molecular mass:   128.10620 amu.
 Principal axes and moments of inertia in atomic units:
                           1         2         3
     Eigenvalues --   292.805803167.543783426.59594
           X            0.99997   0.00782  -0.00000
           Y           -0.00782   0.99997   0.00000
           Z            0.00000  -0.00000   1.00000
 This molecule is an asymmetric top.
 Rotational symmetry number  1.
 Rotational temperatures (Kelvin)      0.29581     0.02734     0.02528
 Rotational constants (GHZ):           6.16361     0.56976     0.52669
    5 imaginary frequencies ignored.
 Zero-point vibrational energy     466127.4 (Joules/Mol)
                                  111.40713 (Kcal/Mol)
 Warning -- explicit consideration of   9 degrees of freedom as
           vibrations may cause significant error
 Vibrational temperatures:     85.66   159.82   180.14   314.38   378.96
          (Kelvin)            433.30   512.98   523.81   564.05   922.96
                              936.45   938.27  1083.82  1251.19  1396.55
                             1399.12  1498.78  1511.91  1512.59  1561.47
                             1602.79  1652.28  1736.70  1788.95  1810.19
                             1840.44  1922.93  1960.28  2003.03  2034.67
                             2072.27  2112.40  2124.38  2146.03  2158.83
                             2169.81  2183.14  2296.64  2336.41  2490.17
                             4239.07  4273.65  4327.01  4347.89  4384.46
                             4407.39  4456.23  4492.15  4536.69  4567.98
                             5071.71  5411.74

 Zero-point correction=                           0.177539 (Hartree/Particle)
 Thermal correction to Energy=                    0.185961
 Thermal correction to Enthalpy=                  0.186905
 Thermal correction to Gibbs Free Energy=         0.143448
 Sum of electronic and zero-point Energies=           -416.510984
 Sum of electronic and thermal Energies=              -416.502561
 Sum of electronic and thermal Enthalpies=            -416.501617
 Sum of electronic and thermal Free Energies=         -416.545075

                     E (Thermal)             CV                S
                      KCal/Mol        Cal/Mol-Kelvin    Cal/Mol-Kelvin
 Total                  116.692             30.151             91.464
 Electronic               0.000              0.000              0.000
 Translational            0.889              2.981             40.456
 Rotational               0.889              2.981             29.542
 Vibrational            114.915             24.190             21.466
 Vibration     1          0.597              1.974              4.472
 Vibration     2          0.607              1.940              3.250
 Vibration     3          0.610              1.928              3.018
 Vibration     4          0.646              1.813              1.971
 Vibration     5          0.670              1.740              1.639
 Vibration     6          0.693              1.672              1.410
 Vibration     7          0.732              1.562              1.137
 Vibration     8          0.738              1.546              1.105
 Vibration     9          0.759              1.487              0.992

 Optimization completed.
    -- Stationary point found.
 Normal termination of Gaussian 16 at Tue Jun  1 21:17:43 2021.
