 Gaussian 16, Revision A.03,
 Gaussian 16:  ES64L-G16RevA.03 25-Dec-2016

 -----------------------------
 # opt freq b3lyp/6-31g(2df,p)
 -----------------------------

 -------------------
 Title Card Required
 -------------------
 Symbolic Z-matrix:
 Charge =  0 Multiplicity = 1

 SCF Done:  E(RB3LYP) =  -429.764321685     A.U. after   13 cycles
 SCF Done:  E(RB3LYP) =  -429.768012112     A.U. after   11 cycles
 SCF Done:  E(RB3LYP) =  -429.768356054     A.U. after   10 cycles
 SCF Done:  E(RB3LYP) =  -429.768387219     A.U. after    9 cycles
 SCF Done:  E(RB3LYP) =  -429.768411871     A.U. after    9 cycles
 SCF Done:  E(RB3LYP) =  -429.768433114     A.U. after    9 cycles
 SCF Done:  E(RB3LYP) =  -429.768556713     A.U. after   11 cycles
 SCF Done:  E(RB3LYP) =  -429.730661007     A.U. after   12 cycles
 SCF Done:  E(RB3LYP) =  -429.769972051     A.U. after   12 cycles
 SCF Done:  E(RB3LYP) =  -429.738229895     A.U. after   12 cycles
 SCF Done:  E(RB3LYP) =  -429.774857665     A.U. after   11 cycles
 SCF Done:  E(RB3LYP) =  -429.775745749     A.U. after   11 cycles
 SCF Done:  E(RB3LYP) =  -429.775969503     A.U. after   11 cycles
 SCF Done:  E(RB3LYP) =  -429.776514720     A.U. after   10 cycles
 SCF Done:  E(RB3LYP) =  -429.776638203     A.U. after   11 cycles
 SCF Done:  E(RB3LYP) =  -429.776755667     A.U. after    9 cycles
 SCF Done:  E(RB3LYP) =  -429.776767532     A.U. after    9 cycles
 SCF Done:  E(RB3LYP) =  -429.776767864     A.U. after    7 cycles
 SCF Done:  E(RB3LYP) =  -429.776767979     A.U. after    6 cycles
 Optimization completed.
    -- Stationary point found.
 Normal termination of Gaussian 16 at Mon May 31 20:08:26 2021.

 ----------------------------------------------------------------------
 #N Geom=AllCheck Guess=TCheck SCRF=Check GenChk RB3LYP/6-31G(2df,p) Fr
 eq
 ----------------------------------------------------------------------

 Structure from the checkpoint file:  "CCdCCCpCppNpCF.chk"
 -------------------
 Title Card Required
 -------------------
 Charge =  0 Multiplicity = 1

                         Standard orientation:
 ---------------------------------------------------------------------
 Center     Atomic      Atomic             Coordinates (Angstroms)
 Number     Number       Type             X           Y           Z
 ---------------------------------------------------------------------
      1          6           0        3.979414   -0.142897    0.271038
      2          6           0        2.654057   -0.196598   -0.429076
      3          6           0        1.595100    0.555342   -0.132812
      4          6           0        0.272547    0.514202   -0.843990
      5          6           0       -0.907492    0.025352    0.037243
      6          6           0       -0.756740   -1.467258    0.386090
      7          7           0       -1.006357    0.888585    1.227290
      8          6           0       -2.197004    0.240025   -0.755768
      9          9           0       -3.286922   -0.167932    0.001883
     10          1           0        4.786256    0.120078   -0.424591
     11          1           0        4.244394   -1.118294    0.698145
     12          1           0        3.977271    0.593100    1.080410
     13          1           0        2.577530   -0.909811   -1.250559
     14          1           0        1.673186    1.278966    0.678297
     15          1           0        0.348637   -0.129972   -1.728049
     16          1           0        0.026996    1.526463   -1.192028
     17          1           0        0.152585   -1.632290    0.971057
     18          1           0       -0.689996   -2.089240   -0.514355
     19          1           0       -1.617206   -1.807169    0.968342
     20          1           0       -0.280845    0.636948    1.892353
     21          1           0       -1.891236    0.692199    1.687919
     22          1           0       -2.190850   -0.341675   -1.685034
     23          1           0       -2.329222    1.302980   -0.986235
 ---------------------------------------------------------------------

 SCF Done:  E(RB3LYP) =  -429.776767979     A.U. after    1 cycles

 The electronic state is 1-A.
 Alpha  occ. eigenvalues --  -24.66920 -14.30440 -10.24691 -10.21900 -10.18333
 Alpha  occ. eigenvalues --  -10.18274 -10.18093 -10.17850 -10.16959  -1.18096
 Alpha  occ. eigenvalues --   -0.89075  -0.79836  -0.76027  -0.71394  -0.68761
 Alpha  occ. eigenvalues --   -0.64344  -0.56124  -0.54451  -0.50097  -0.49046
 Alpha  occ. eigenvalues --   -0.48445  -0.44921  -0.43801  -0.42227  -0.41504
 Alpha  occ. eigenvalues --   -0.40891  -0.39866  -0.38446  -0.36788  -0.35700
 Alpha  occ. eigenvalues --   -0.34727  -0.34101  -0.32981  -0.31078  -0.24741
 Alpha  occ. eigenvalues --   -0.23431
 Alpha virt. eigenvalues --    0.02269   0.08355   0.10366   0.11607   0.12066
 Alpha virt. eigenvalues --    0.12956   0.13702   0.15029   0.15966   0.16245
 Alpha virt. eigenvalues --    0.17281   0.17825   0.18362   0.19238   0.20400

 Mulliken charges:
               1
     1  C   -0.425418
     2  C   -0.030452
     3  C   -0.046080
     4  C   -0.247223
     5  C    0.209880
     6  C   -0.418705
     7  N   -0.543410
     8  C   -0.058932
     9  F   -0.171867
    10  H    0.125702
    11  H    0.124423
    12  H    0.118870
    13  H    0.077633
    14  H    0.087846
    15  H    0.090978
    16  H    0.105228
    17  H    0.114468
    18  H    0.106112
    19  H    0.120904
    20  H    0.223617
    21  H    0.230109
    22  H    0.098094
    23  H    0.108224
 Sum of Mulliken charges =  -0.00000

 Dipole moment (field-independent basis, Debye):
    X=              1.4159    Y=             -0.6865    Z=             -0.2521  Tot=              1.5936
 Quadrupole moment (field-independent basis, Debye-Ang):
   XX=            -59.2017   YY=            -58.1889   ZZ=            -52.3951
   XY=             -0.8720   XZ=              1.4259   YZ=             -0.1103

  Exact polarizability: 109.905  -7.139  74.543   1.069   3.534  74.778
 Approx polarizability: 138.406 -13.925 112.946  -2.587   8.271 111.011

                      1                      2                      3
                      A                      A                      A
 Frequencies --     55.2731                68.5134               125.6012
 Red. masses --      3.0653                 3.1068                 2.3600
 Frc consts  --      0.0055                 0.0086                 0.0219
 IR Inten    --      0.1804                 0.2027                 2.1394

                      4                      5                      6
                      A                      A                      A
 Frequencies --    146.9079               214.7020               218.4932
 Red. masses --      2.0037                 1.7385                 2.4092
 Frc consts  --      0.0255                 0.0472                 0.0678
 IR Inten    --      2.1200                 3.4305                 1.6500

                      7                      8                      9
                      A                      A                      A
 Frequencies --    247.4940               268.1927               301.5829
 Red. masses --      1.1150                 2.5234                 1.1681
 Frc consts  --      0.0402                 0.1069                 0.0626
 IR Inten    --      0.4426                 0.4785                48.5310

                     10                     11                     12
                      A                      A                      A
 Frequencies --    316.7176               327.6164               358.0758
 Red. masses --      2.9472                 3.3863                 2.2911
 Frc consts  --      0.1742                 0.2141                 0.1731
 IR Inten    --      1.8339                 2.4093                 8.5687

                     13                     14                     15
                      A                      A                      A
 Frequencies --    401.0941               439.0822               533.4402
 Red. masses --      2.1004                 2.2942                 2.6557
 Frc consts  --      0.1991                 0.2606                 0.4452
 IR Inten    --      2.4260                 7.3241                 0.7970

                     16                     17                     18
                      A                      A                      A
 Frequencies --    603.4527               756.8170               816.0240
 Red. masses --      2.6599                 2.7240                 1.8131
 Frc consts  --      0.5707                 0.9193                 0.7114
 IR Inten    --     13.3948                 4.7355                 6.9982

                     19                     20                     21
                      A                      A                      A
 Frequencies --    878.7526               902.7336               912.8370
 Red. masses --      1.9493                 1.7567                 1.9153
 Frc consts  --      0.8869                 0.8435                 0.9403
 IR Inten    --     14.8884                51.6942                21.4031

                     22                     23                     24
                      A                      A                      A
 Frequencies --    951.6597               961.8381               987.1853
 Red. masses --      1.4679                 1.5224                 1.6213
 Frc consts  --      0.7833                 0.8298                 0.9309
 IR Inten    --     59.4168                 1.6479                 4.5664

                     25                     26                     27
                      A                      A                      A
 Frequencies --   1028.9301              1058.2059              1069.3790
 Red. masses --      1.0849                 4.8627                 1.5483
 Frc consts  --      0.6767                 3.2082                 1.0432
 IR Inten    --     21.1146                66.3129                 0.4918

                     28                     29                     30
                      A                      A                      A
 Frequencies --   1080.5752              1091.1771              1125.6885
 Red. masses --      1.4983                 3.5692                 1.7212
 Frc consts  --      1.0308                 2.5038                 1.2850
 IR Inten    --      8.9161                26.5918                 2.7490

                     31                     32                     33
                      A                      A                      A
 Frequencies --   1180.5419              1246.2426              1253.7164
 Red. masses --      2.2458                 1.4311                 2.2381
 Frc consts  --      1.8441                 1.3095                 2.0727
 IR Inten    --      6.0017                 3.4840                19.9678

                     34                     35                     36
                      A                      A                      A
 Frequencies --   1282.7007              1307.0699              1330.9508
 Red. masses --      1.2822                 1.4101                 1.2581
 Frc consts  --      1.2430                 1.4194                 1.3130
 IR Inten    --      9.1416                 5.2320                 0.3842

                     37                     38                     39
                      A                      A                      A
 Frequencies --   1350.8023              1378.1254              1401.1130
 Red. masses --      1.2975                 1.4801                 1.3702
 Frc consts  --      1.3949                 1.6562                 1.5849
 IR Inten    --      2.5366                 2.7687                 5.6716

                     40                     41                     42
                      A                      A                      A
 Frequencies --   1412.5521              1427.0680              1468.2244
 Red. masses --      1.2629                 1.3272                 1.1008
 Frc consts  --      1.4847                 1.5925                 1.3981
 IR Inten    --      1.7650                 4.5903                 3.2045

                     43                     44                     45
                      A                      A                      A
 Frequencies --   1479.9469              1487.9940              1492.5593
 Red. masses --      1.0448                 1.0610                 1.0533
 Frc consts  --      1.3483                 1.3841                 1.3825
 IR Inten    --      4.5411                 2.6632                 7.1692

                     46                     47                     48
                      A                      A                      A
 Frequencies --   1501.0675              1504.1996              1654.1912
 Red. masses --      1.0740                 1.0772                 1.0929
 Frc consts  --      1.4258                 1.4360                 1.7620
 IR Inten    --      5.3349                 0.9158                36.2242

                     49                     50                     51
                      A                      A                      A
 Frequencies --   1742.0343              3010.8988              3017.6034
 Red. masses --      6.0662                 1.0593                 1.0372
 Frc consts  --     10.8463                 5.6579                 5.5648
 IR Inten    --      1.8442                20.0901                34.3492

                     52                     53                     54
                      A                      A                      A
 Frequencies --   3027.8399              3033.3104              3061.3059
 Red. masses --      1.0452                 1.0488                 1.1001
 Frc consts  --      5.6456                 5.6858                 6.0740
 IR Inten    --     29.7159                24.8177                12.3402

                     55                     56                     57
                      A                      A                      A
 Frequencies --   3064.0927              3086.6661              3098.6814
 Red. masses --      1.0987                 1.1091                 1.0975
 Frc consts  --      6.0777                 6.2256                 6.2090
 IR Inten    --     20.8258                33.5833                31.0721

                     58                     59                     60
                      A                      A                      A
 Frequencies --   3102.0786              3122.3761              3123.8546
 Red. masses --      1.0967                 1.1020                 1.0923
 Frc consts  --      6.2176                 6.3299                 6.2800
 IR Inten    --      5.9085                19.0457                14.2782

                     61                     62                     63
                      A                      A                      A
 Frequencies --   3134.0776              3487.9787              3563.7771
 Red. masses --      1.0865                 1.0490                 1.0917
 Frc consts  --      6.2878                 7.5195                 8.1689
 IR Inten    --     38.6298                 1.2318                 0.8165

 - Thermochemistry -
 -------------------
 Temperature   298.150 Kelvin.  Pressure   1.00000 Atm.
 Atom     1 has atomic number  6 and mass  12.00000

 Molecular mass:   131.11103 amu.
 Principal axes and moments of inertia in atomic units:
                           1         2         3
     Eigenvalues --   455.829762661.596282672.17585
           X            0.99997  -0.00300   0.00643
           Y            0.00384   0.99098  -0.13396
           Z           -0.00597   0.13398   0.99097
 This molecule is an asymmetric top.
 Rotational symmetry number  1.
 Warning -- assumption of classical behavior for rotation
           may cause significant error
 Rotational temperatures (Kelvin)      0.19001     0.03254     0.03241
 Rotational constants (GHZ):           3.95924     0.67807     0.67538
 Zero-point vibrational energy     532838.8 (Joules/Mol)
                                  127.35152 (Kcal/Mol)
 Warning -- explicit consideration of  16 degrees of freedom as
           vibrations may cause significant error
 Vibrational temperatures:     79.53    98.58   180.71   211.37   308.91
          (Kelvin)            314.36   356.09   385.87   433.91   455.69
                              471.37   515.19   577.08   631.74   767.50
                              868.23  1088.89  1174.08  1264.33  1298.83
                             1313.37  1369.23  1383.87  1420.34  1480.40
                             1522.52  1538.60  1554.71  1569.96  1619.61
                             1698.54  1793.07  1803.82  1845.52  1880.58
                             1914.94  1943.50  1982.82  2015.89  2032.35
                             2053.23  2112.45  2129.31  2140.89  2147.46
                             2159.70  2164.21  2380.01  2506.40  4332.01
                             4341.66  4356.39  4364.26  4404.54  4408.55
                             4441.02  4458.31  4463.20  4492.40  4494.53
                             4509.24  5018.42  5127.48

 Zero-point correction=                           0.202948 (Hartree/Particle)
 Thermal correction to Energy=                    0.214028
 Thermal correction to Enthalpy=                  0.214972
 Thermal correction to Gibbs Free Energy=         0.166567
 Sum of electronic and zero-point Energies=           -429.573820
 Sum of electronic and thermal Energies=              -429.562740
 Sum of electronic and thermal Enthalpies=            -429.561796
 Sum of electronic and thermal Free Energies=         -429.610201

                     E (Thermal)             CV                S
                      KCal/Mol        Cal/Mol-Kelvin    Cal/Mol-Kelvin
 Total                  134.304             40.421            101.876
 Electronic               0.000              0.000              0.000
 Translational            0.889              2.981             40.525
 Rotational               0.889              2.981             29.562
 Vibrational            132.527             34.459             31.788
 Vibration     1          0.596              1.975              4.619
 Vibration     2          0.598              1.969              4.196
 Vibration     3          0.611              1.927              3.012
 Vibration     4          0.617              1.906              2.712
 Vibration     5          0.645              1.819              2.003
 Vibration     6          0.646              1.813              1.972
 Vibration     7          0.661              1.767              1.748
 Vibration     8          0.673              1.732              1.608
 Vibration     9          0.694              1.671              1.408
 Vibration    10          0.704              1.642              1.327
 Vibration    11          0.711              1.620              1.272
 Vibration    12          0.733              1.559              1.130
 Vibration    13          0.767              1.468              0.959
 Vibration    14          0.799              1.385              0.829
 Vibration    15          0.888              1.176              0.580
 Vibration    16          0.962              1.024              0.444

 Optimization completed.
    -- Stationary point found.
 Normal termination of Gaussian 16 at Mon May 31 20:39:56 2021.
