 Gaussian 16, Revision A.03,
 Gaussian 16:  ES64L-G16RevA.03 25-Dec-2016

 -----------------------------
 # opt freq b3lyp/6-31g(2df,p)
 -----------------------------

 -------------------
 Title Card Required
 -------------------
 Symbolic Z-matrix:
 Charge =  0 Multiplicity = 1

 SCF Done:  E(RB3LYP) =  -384.630814259     A.U. after   13 cycles
 SCF Done:  E(RB3LYP) =  -384.635669457     A.U. after   11 cycles
 SCF Done:  E(RB3LYP) =  -384.636862400     A.U. after   11 cycles
 SCF Done:  E(RB3LYP) =  -384.638503631     A.U. after   12 cycles
 SCF Done:  E(RB3LYP) =  -384.639782681     A.U. after   11 cycles
 SCF Done:  E(RB3LYP) =  -384.643237864     A.U. after   12 cycles
 SCF Done:  E(RB3LYP) =  -384.644019259     A.U. after   11 cycles
 SCF Done:  E(RB3LYP) =  -384.644504185     A.U. after   11 cycles
 SCF Done:  E(RB3LYP) =  -384.644688958     A.U. after   10 cycles
 SCF Done:  E(RB3LYP) =  -384.644756909     A.U. after   10 cycles
 SCF Done:  E(RB3LYP) =  -384.647403344     A.U. after   12 cycles
 SCF Done:  E(RB3LYP) =  -384.647882322     A.U. after   10 cycles
 SCF Done:  E(RB3LYP) =  -384.647980876     A.U. after   10 cycles
 SCF Done:  E(RB3LYP) =  -384.648040810     A.U. after   10 cycles
 SCF Done:  E(RB3LYP) =  -384.648058995     A.U. after    9 cycles
 SCF Done:  E(RB3LYP) =  -384.648070556     A.U. after    9 cycles
 SCF Done:  E(RB3LYP) =  -384.648071961     A.U. after    7 cycles
 SCF Done:  E(RB3LYP) =  -384.648072609     A.U. after    7 cycles
 SCF Done:  E(RB3LYP) =  -384.648072709     A.U. after    7 cycles
 Optimization completed.
    -- Stationary point found.
 Normal termination of Gaussian 16 at Tue Jun  1 22:39:11 2021.

 ----------------------------------------------------------------------
 #N Geom=AllCheck Guess=TCheck SCRF=Check GenChk RB3LYP/6-31G(2df,p) Fr
 eq
 ----------------------------------------------------------------------

 Structure from the checkpoint file:  "CCdCNCC1NC1C.chk"
 -------------------
 Title Card Required
 -------------------
 Charge =  0 Multiplicity = 1

                         Standard orientation:
 ---------------------------------------------------------------------
 Center     Atomic      Atomic             Coordinates (Angstroms)
 Number     Number       Type             X           Y           Z
 ---------------------------------------------------------------------
      1          6           0        4.408363    0.272103    0.210397
      2          6           0        2.995540    0.572642   -0.195483
      3          6           0        1.955973   -0.225471    0.062533
      4          7           0        0.611027    0.052345   -0.192462
      5          6           0       -0.276101   -1.036158   -0.582273
      6          6           0       -1.713273   -0.814465   -0.141965
      7          7           0       -2.003331   -0.292422    1.201346
      8          6           0       -2.313712    0.532871    0.016099
      9          6           0       -3.772074    0.804747   -0.261188
     10          1           0        5.086282    0.263468   -0.652917
     11          1           0        4.481902   -0.704121    0.700408
     12          1           0        4.803389    1.021725    0.908914
     13          1           0        2.822257    1.515763   -0.713254
     14          1           0        2.108191   -1.176139    0.571027
     15          1           0        0.487618    0.881424   -0.759065
     16          1           0        0.097534   -1.948817   -0.101846
     17          1           0       -0.253896   -1.229094   -1.667704
     18          1           0       -2.375318   -1.624348   -0.447232
     19          1           0       -1.122402    0.037762    1.595780
     20          1           0       -1.651653    1.380147   -0.156741
     21          1           0       -4.374996   -0.080383   -0.040472
     22          1           0       -3.929407    1.079587   -1.310207
     23          1           0       -4.141661    1.625948    0.362407
 ---------------------------------------------------------------------

 SCF Done:  E(RB3LYP) =  -384.648072709     A.U. after    1 cycles

 The electronic state is 1-A.
 Alpha  occ. eigenvalues --  -14.33960 -14.31193 -10.22097 -10.20958 -10.20820
 Alpha  occ. eigenvalues --  -10.20517 -10.17495 -10.17332 -10.16500  -0.95336
 Alpha  occ. eigenvalues --   -0.91871  -0.77340  -0.72717  -0.71583  -0.65570
 Alpha  occ. eigenvalues --   -0.61149  -0.57563  -0.56667  -0.50249  -0.48434
 Alpha  occ. eigenvalues --   -0.47833  -0.42967  -0.42120  -0.40630  -0.40185
 Alpha  occ. eigenvalues --   -0.39589  -0.39185  -0.37669  -0.35744  -0.34845
 Alpha  occ. eigenvalues --   -0.32234  -0.30781  -0.30364  -0.23722  -0.19608
 Alpha virt. eigenvalues --    0.04591   0.07756   0.09772   0.11513   0.12115
 Alpha virt. eigenvalues --    0.12361   0.13472   0.14649   0.15499   0.15919
 Alpha virt. eigenvalues --    0.16916   0.17748   0.17789   0.18119   0.18403

 Mulliken charges:
               1
     1  C   -0.412842
     2  C   -0.131328
     3  C    0.062886
     4  N   -0.307540
     5  C   -0.192046
     6  C    0.001212
     7  N   -0.336270
     8  C    0.012777
     9  C   -0.395820
    10  H    0.117156
    11  H    0.113133
    12  H    0.118554
    13  H    0.061376
    14  H    0.093671
    15  H    0.233281
    16  H    0.117763
    17  H    0.100893
    18  H    0.085598
    19  H    0.230965
    20  H    0.070293
    21  H    0.125530
    22  H    0.110735
    23  H    0.120026
 Sum of Mulliken charges =  -0.00000

 Dipole moment (field-independent basis, Debye):
    X=              0.6395    Y=              0.3224    Z=             -1.7342  Tot=              1.8762
 Quadrupole moment (field-independent basis, Debye-Ang):
   XX=            -60.1150   YY=            -53.6488   ZZ=            -58.7576
   XY=             -1.4623   XZ=              4.3764   YZ=             -0.1563

  Exact polarizability: 130.258   4.423  82.362   3.077  -2.127  69.831
 Approx polarizability: 152.187  10.835 126.696   0.656  -5.573 108.505

                      1                      2                      3
                      A                      A                      A
 Frequencies --     44.3753                71.3397                90.4102
 Red. masses --      3.2428                 2.9154                 1.7888
 Frc consts  --      0.0038                 0.0087                 0.0086
 IR Inten    --      0.9271                 0.5361                 1.7335

                      4                      5                      6
                      A                      A                      A
 Frequencies --    157.0889               184.9985               200.6088
 Red. masses --      2.5292                 1.7101                 1.4313
 Frc consts  --      0.0368                 0.0345                 0.0339
 IR Inten    --      2.2219                 1.7514                 1.7089

                      7                      8                      9
                      A                      A                      A
 Frequencies --    215.5332               238.8246               289.1081
 Red. masses --      1.5643                 2.1190                 2.4348
 Frc consts  --      0.0428                 0.0712                 0.1199
 IR Inten    --      1.3687                 0.9351                 5.8755

                     10                     11                     12
                      A                      A                      A
 Frequencies --    301.4842               422.5585               451.7864
 Red. masses --      2.5273                 2.7692                 2.7414
 Frc consts  --      0.1353                 0.2913                 0.3297
 IR Inten    --      0.4767                 6.1512                 6.1918

                     13                     14                     15
                      A                      A                      A
 Frequencies --    490.6028               634.7407               699.2961
 Red. masses --      3.4403                 2.5129                 1.4286
 Frc consts  --      0.4879                 0.5965                 0.4116
 IR Inten    --      1.6446                18.9194                80.8720

                     16                     17                     18
                      A                      A                      A
 Frequencies --    769.4776               810.9071               819.4631
 Red. masses --      3.6936                 1.7218                 2.4990
 Frc consts  --      1.2885                 0.6671                 0.9887
 IR Inten    --      1.7696                19.7722                20.8708

                     19                     20                     21
                      A                      A                      A
 Frequencies --    895.0276               932.4505               960.4575
 Red. masses --      2.7353                 1.4930                 1.3223
 Frc consts  --      1.2910                 0.7648                 0.7187
 IR Inten    --     30.5851                10.2923                12.5638

                     22                     23                     24
                      A                      A                      A
 Frequencies --    988.8601              1005.5398              1025.4224
 Red. masses --      1.1326                 1.4267                 1.6739
 Frc consts  --      0.6525                 0.8499                 1.0370
 IR Inten    --     26.8839                 3.9067                 5.8301

                     25                     26                     27
                      A                      A                      A
 Frequencies --   1062.6233              1065.1073              1094.3330
 Red. masses --      1.4625                 2.3529                 2.2864
 Frc consts  --      0.9730                 1.5727                 1.6133
 IR Inten    --      3.1232                 8.8294                13.0652

                     28                     29                     30
                      A                      A                      A
 Frequencies --   1112.4855              1149.4453              1163.8076
 Red. masses --      1.5796                 1.8506                 1.6157
 Frc consts  --      1.1518                 1.4406                 1.2894
 IR Inten    --     46.1521                 9.8488                23.8373

                     31                     32                     33
                      A                      A                      A
 Frequencies --   1187.7612              1230.3228              1267.2769
 Red. masses --      1.2999                 1.8380                 1.4546
 Frc consts  --      1.0804                 1.6392                 1.3764
 IR Inten    --     44.6633                95.2032                19.7455

                     34                     35                     36
                      A                      A                      A
 Frequencies --   1281.9781              1292.6652              1322.7199
 Red. masses --      1.3951                 1.5866                 1.3895
 Frc consts  --      1.3509                 1.5620                 1.4323
 IR Inten    --     74.3519                 7.9027                 1.4981

                     37                     38                     39
                      A                      A                      A
 Frequencies --   1349.8714              1358.7522              1392.4486
 Red. masses --      1.2062                 1.3271                 1.3782
 Frc consts  --      1.2950                 1.4436                 1.5744
 IR Inten    --      3.6376                10.8199                24.3335

                     40                     41                     42
                      A                      A                      A
 Frequencies --   1414.7964              1417.2560              1474.6332
 Red. masses --      1.2745                 1.2401                 1.5634
 Frc consts  --      1.5031                 1.4676                 2.0030
 IR Inten    --      7.4263                10.1329                 2.3646

                     43                     44                     45
                      A                      A                      A
 Frequencies --   1478.3458              1481.2236              1492.0513
 Red. masses --      1.0486                 1.2377                 1.1400
 Frc consts  --      1.3502                 1.6000                 1.4953
 IR Inten    --      4.0749                12.9044                 5.7987

                     46                     47                     48
                      A                      A                      A
 Frequencies --   1497.1929              1501.5252              1508.2319
 Red. masses --      1.1125                 1.2418                 1.1502
 Frc consts  --      1.4693                 1.6496                 1.5415
 IR Inten    --      8.2760                 6.6572                34.7913

                     49                     50                     51
                      A                      A                      A
 Frequencies --   1747.5447              2963.1370              3008.1289
 Red. masses --      5.2882                 1.0711                 1.0377
 Frc consts  --      9.5151                 5.5411                 5.5324
 IR Inten    --    125.5257                69.3023                65.0502

                     52                     53                     54
                      A                      A                      A
 Frequencies --   3030.8720              3047.8566              3049.2866
 Red. masses --      1.0360                 1.0894                 1.0992
 Frc consts  --      5.6069                 5.9623                 6.0220
 IR Inten    --     31.8476                21.2544                30.3873

                     55                     56                     57
                      A                      A                      A
 Frequencies --   3092.4761              3093.1167              3105.5288
 Red. masses --      1.0971                 1.1010                 1.0909
 Frc consts  --      6.1815                 6.2062                 6.1987
 IR Inten    --     16.7590                25.1279                 2.2661

                     58                     59                     60
                      A                      A                      A
 Frequencies --   3110.2459              3124.8422              3125.7870
 Red. masses --      1.0894                 1.0940                 1.0894
 Frc consts  --      6.2090                 6.2937                 6.2715
 IR Inten    --     21.6577                45.7905                31.7513

                     61                     62                     63
                      A                      A                      A
 Frequencies --   3146.5216              3465.6088              3567.1794
 Red. masses --      1.0878                 1.0738                 1.0739
 Frc consts  --      6.3456                 7.5989                 8.0512
 IR Inten    --     20.5482                 7.2160                 3.3052

 - Thermochemistry -
 -------------------
 Temperature   298.150 Kelvin.  Pressure   1.00000 Atm.
 Atom     1 has atomic number  6 and mass  12.00000

 Molecular mass:   126.11570 amu.
 Principal axes and moments of inertia in atomic units:
                           1         2         3
     Eigenvalues --   342.916533217.817663293.14047
           X            0.99996  -0.00440   0.00815
           Y            0.00447   0.99994  -0.00960
           Z           -0.00811   0.00964   0.99992
 This molecule is an asymmetric top.
 Rotational symmetry number  1.
 Rotational temperatures (Kelvin)      0.25258     0.02692     0.02630
 Rotational constants (GHZ):           5.26292     0.56086     0.54803
 Zero-point vibrational energy     538172.1 (Joules/Mol)
                                  128.62622 (Kcal/Mol)
 Warning -- explicit consideration of  13 degrees of freedom as
           vibrations may cause significant error
 Vibrational temperatures:     63.85   102.64   130.08   226.02   266.17
          (Kelvin)            288.63   310.10   343.62   415.96   433.77
                              607.97   650.02   705.87   913.25  1006.13
                             1107.11  1166.71  1179.02  1287.75  1341.59
                             1381.88  1422.75  1446.75  1475.35  1528.88
                             1532.45  1574.50  1600.62  1653.80  1674.46
                             1708.92  1770.16  1823.33  1844.48  1859.86
                             1903.10  1942.16  1954.94  2003.42  2035.58
                             2039.12  2121.67  2127.01  2131.15  2146.73
                             2154.13  2160.36  2170.01  2514.33  4263.29
                             4328.03  4360.75  4385.19  4387.24  4449.38
                             4450.31  4468.16  4474.95  4495.95  4497.31
                             4527.14  4986.24  5132.38

 Zero-point correction=                           0.204979 (Hartree/Particle)
 Thermal correction to Energy=                    0.215698
 Thermal correction to Enthalpy=                  0.216642
 Thermal correction to Gibbs Free Energy=         0.168337
 Sum of electronic and zero-point Energies=           -384.443094
 Sum of electronic and thermal Energies=              -384.432375
 Sum of electronic and thermal Enthalpies=            -384.431431
 Sum of electronic and thermal Free Energies=         -384.479736

                     E (Thermal)             CV                S
                      KCal/Mol        Cal/Mol-Kelvin    Cal/Mol-Kelvin
 Total                  135.352             38.503            101.666
 Electronic               0.000              0.000              0.000
 Translational            0.889              2.981             40.410
 Rotational               0.889              2.981             29.676
 Vibrational            133.575             32.542             31.581
 Vibration     1          0.595              1.980              5.054
 Vibration     2          0.598              1.968              4.116
 Vibration     3          0.602              1.956              3.651
 Vibration     4          0.621              1.895              2.585
 Vibration     5          0.631              1.860              2.277
 Vibration     6          0.638              1.839              2.128
 Vibration     7          0.645              1.817              1.996
 Vibration     8          0.657              1.781              1.812
 Vibration     9          0.686              1.694              1.479
 Vibration    10          0.693              1.671              1.409
 Vibration    11          0.785              1.421              0.883
 Vibration    12          0.810              1.357              0.790
 Vibration    13          0.846              1.271              0.682

                           ! Non-Optimized Parameters !
 Normal termination of Gaussian 16 at Tue Jun  1 23:10:38 2021.
