 Gaussian 16, Revision A.03,
 Gaussian 16:  ES64L-G16RevA.03 25-Dec-2016

 -----------------------------
 # opt freq b3lyp/6-31g(2df,p)
 -----------------------------

 -------------------
 Title Card Required
 -------------------
 Symbolic Z-matrix:
 Charge =  0 Multiplicity = 1

 SCF Done:  E(RB3LYP) =  -479.298389254     A.U. after   14 cycles
 SCF Done:  E(RB3LYP) =  -479.305905984     A.U. after   12 cycles
 SCF Done:  E(RB3LYP) =  -479.306556815     A.U. after   10 cycles
 SCF Done:  E(RB3LYP) =  -479.306613573     A.U. after    9 cycles
 SCF Done:  E(RB3LYP) =  -479.306616379     A.U. after    8 cycles
 Optimization completed.
    -- Stationary point found.
 Normal termination of Gaussian 16 at Tue Jun  1 17:37:42 2021.

 ----------------------------------------------------------------------
 #N Geom=AllCheck Guess=TCheck SCRF=Check GenChk RB3LYP/6-31G(2df,p) Fr
 eq
 ----------------------------------------------------------------------

 Structure from the checkpoint file:  "CCdCNNCpdNpCCCC.chk"
 -------------------
 Title Card Required
 -------------------
 Charge =  0 Multiplicity = 1

                         Standard orientation:
 ---------------------------------------------------------------------
 Center     Atomic      Atomic             Coordinates (Angstroms)
 Number     Number       Type             X           Y           Z
 ---------------------------------------------------------------------
      1          6           0        5.666085   -0.648339    0.000001
      2          6           0        4.419744    0.204158    0.000002
      3          6           0        3.177277   -0.298599   -0.000000
      4          7           0        2.003331    0.412134    0.000000
      5          7           0        0.757603   -0.218107   -0.000001
      6          6           0       -0.436019    0.445207   -0.000001
      7          7           0       -0.630961    1.713894   -0.000002
      8          6           0       -1.618437   -0.512868   -0.000002
      9          6           0       -2.983543    0.175825    0.000001
     10          6           0       -4.145047   -0.823407   -0.000000
     11          6           0       -5.515380   -0.140444    0.000002
     12          1           0        6.559361   -0.018160   -0.000001
     13          1           0        5.737325   -1.297046   -0.882324
     14          1           0        5.737327   -1.297044    0.882327
     15          1           0        4.549883    1.283563    0.000004
     16          1           0        3.023758   -1.376895   -0.000003
     17          1           0        1.976626    1.414629    0.000003
     18          1           0        0.799162   -1.221909    0.000000
     19          1           0        0.227948    2.262316   -0.000002
     20          1           0       -1.534488   -1.170762    0.876777
     21          1           0       -1.534490   -1.170759   -0.876783
     22          1           0       -3.052678    0.834780   -0.871842
     23          1           0       -3.052676    0.834777    0.871845
     24          1           0       -4.064311   -1.480501    0.876905
     25          1           0       -4.064313   -1.480498   -0.876907
     26          1           0       -5.638849    0.495962    0.883160
     27          1           0       -6.328623   -0.873075    0.000001
     28          1           0       -5.638850    0.495965   -0.883154
 ---------------------------------------------------------------------

 SCF Done:  E(RB3LYP) =  -479.306616379     A.U. after    1 cycles

 The electronic state is 1-A.
 Alpha  occ. eigenvalues --  -14.38659 -14.37981 -14.28077 -10.25068 -10.21883
 Alpha  occ. eigenvalues --  -10.18958 -10.17538 -10.17506 -10.17021 -10.16768
 Alpha  occ. eigenvalues --  -10.16234  -1.02006  -0.89702  -0.82911  -0.79137
 Alpha  occ. eigenvalues --   -0.76148  -0.72899  -0.67723  -0.64711  -0.61648
 Alpha  occ. eigenvalues --   -0.57723  -0.55934  -0.53850  -0.51733  -0.47907
 Alpha  occ. eigenvalues --   -0.47175  -0.43546  -0.42218  -0.41658  -0.40950
 Alpha  occ. eigenvalues --   -0.40795  -0.39669  -0.37815  -0.36632  -0.35388
 Alpha  occ. eigenvalues --   -0.34979  -0.33102  -0.32257  -0.31994  -0.31176
 Alpha  occ. eigenvalues --   -0.25466  -0.24536  -0.16731
 Alpha virt. eigenvalues --    0.03509   0.05500   0.05843   0.07403   0.09609
 Alpha virt. eigenvalues --    0.11143   0.11839   0.13183   0.13487   0.13701
 Alpha virt. eigenvalues --    0.15396   0.16877   0.18165   0.18761   0.18833

 Mulliken charges:
               1
     1  C   -0.417488
     2  C   -0.176590
     3  C    0.109714
     4  N   -0.264873
     5  N   -0.298471
     6  C    0.408902
     7  N   -0.561456
     8  C   -0.287588
     9  C   -0.144004
    10  C   -0.169957
    11  C   -0.380211
    12  H    0.119573
    13  H    0.118666
    14  H    0.118666
    15  H    0.066509
    16  H    0.087782
    17  H    0.257548
    18  H    0.258725
    19  H    0.191201
    20  H    0.109540
    21  H    0.109540
    22  H    0.113530
    23  H    0.113530
    24  H    0.089102
    25  H    0.089102
    26  H    0.115564
    27  H    0.107876
    28  H    0.115565
 Sum of Mulliken charges =  -0.00000

 Dipole moment (field-independent basis, Debye):
    X=              1.0172    Y=             -2.1837    Z=              0.0000  Tot=              2.4090
 Quadrupole moment (field-independent basis, Debye-Ang):
   XX=            -71.9353   YY=            -67.3601   ZZ=            -71.4365
   XY=              4.2028   XZ=              0.0000   YZ=              0.0000

  Exact polarizability: 184.748  -4.342 104.302  -0.000   0.000  72.950
 Approx polarizability: 209.760  -7.171 166.133   0.000   0.000 113.286

 ******    5 imaginary frequencies (negative Signs) ******

                      1                      2                      3
                      A                      A                      A
 Frequencies --   -550.5092              -436.3403              -203.7123
 Red. masses --      1.1939                 1.6484                 1.0535
 Frc consts  --      0.2132                 0.1849                 0.0258
 IR Inten    --     75.1711                50.9132                 1.6991

                      4                      5                      6
                      A                      A                      A
 Frequencies --    -76.1383               -28.1338                60.8841
 Red. masses --      5.3763                 2.1894                 3.7417
 Frc consts  --      0.0184                 0.0010                 0.0082
 IR Inten    --      0.0093                 0.0988                 0.0846

                      7                      8                      9
                      A                      A                      A
 Frequencies --     63.6029               100.0414               116.3587
 Red. masses --      2.0202                 2.0194                 1.8775
 Frc consts  --      0.0048                 0.0119                 0.0150
 IR Inten    --      2.0963                 2.9231                 0.1445

                     10                     11                     12
                      A                      A                      A
 Frequencies --    137.0717               182.4360               234.1641
 Red. masses --      3.4778                 1.8963                 3.1324
 Frc consts  --      0.0385                 0.0372                 0.1012
 IR Inten    --      3.0502                 6.8665                 0.1323

                     13                     14                     15
                      A                      A                      A
 Frequencies --    247.0011               247.1595               254.2947
 Red. masses --      1.1158                 3.4645                 4.4130
 Frc consts  --      0.0401                 0.1247                 0.1681
 IR Inten    --      0.1884                 3.0568                 0.7578

                     16                     17                     18
                      A                      A                      A
 Frequencies --    324.9363               413.5471               469.5139
 Red. masses --      3.9819                 3.3655                 3.3019
 Frc consts  --      0.2477                 0.3391                 0.4289
 IR Inten    --     14.8926                 5.2271                 0.1940

                     19                     20                     21
                      A                      A                      A
 Frequencies --    527.0146               561.3840               683.5488
 Red. masses --      1.7814                 3.9279                 3.4726
 Frc consts  --      0.2915                 0.7293                 0.9560
 IR Inten    --     17.5020                 7.6880                13.5197

                     22                     23                     24
                      A                      A                      A
 Frequencies --    732.6742               754.9652               761.2636
 Red. masses --      1.0940                 1.7360                 1.5225
 Frc consts  --      0.3460                 0.5830                 0.5199
 IR Inten    --      3.3772                23.3341                46.2569

                     25                     26                     27
                      A                      A                      A
 Frequencies --    802.8759               903.9230               928.8127
 Red. masses --      1.2122                 2.0125                 2.4081
 Frc consts  --      0.4604                 0.9688                 1.2240
 IR Inten    --      1.1185                 7.4006                11.3736

                     28                     29                     30
                      A                      A                      A
 Frequencies --    936.2296               949.1642               972.5180
 Red. masses --      1.2500                 1.1212                 1.6660
 Frc consts  --      0.6455                 0.5951                 0.9284
 IR Inten    --      0.1328                27.6346                16.1703

                     31                     32                     33
                      A                      A                      A
 Frequencies --   1028.5533              1051.3272              1061.0070
 Red. masses --      3.4525                 1.3556                 2.9000
 Frc consts  --      2.1519                 0.8828                 1.9235
 IR Inten    --      0.8953                 1.7351                 2.2541

                     34                     35                     36
                      A                      A                      A
 Frequencies --   1076.8258              1116.5596              1130.3718
 Red. masses --      2.1264                 2.4342                 1.4528
 Frc consts  --      1.4527                 1.7880                 1.0937
 IR Inten    --      1.0447                22.8061                 0.7064

                     37                     38                     39
                      A                      A                      A
 Frequencies --   1132.6170              1196.1573              1238.2394
 Red. masses --      2.3890                 2.2906                 1.4463
 Frc consts  --      1.8057                 1.9309                 1.3065
 IR Inten    --     28.8450                22.9446                 0.0119

                     40                     41                     42
                      A                      A                      A
 Frequencies --   1257.1717              1286.2985              1305.3751
 Red. masses --      1.4926                 1.3724                 1.6645
 Frc consts  --      1.3899                 1.3379                 1.6712
 IR Inten    --    148.2617                69.7287               158.4654

                     43                     44                     45
                      A                      A                      A
 Frequencies --   1316.3747              1324.0612              1324.5746
 Red. masses --      1.1762                 1.0527                 1.4616
 Frc consts  --      1.2008                 1.0873                 1.5109
 IR Inten    --      0.1835                 0.0553                 0.6145

                     46                     47                     48
                      A                      A                      A
 Frequencies --   1347.9052              1379.3006              1400.9649
 Red. masses --      1.3953                 1.5354                 1.6243
 Frc consts  --      1.4936                 1.7210                 1.8784
 IR Inten    --     21.9836                30.5242                 1.5356

                     49                     50                     51
                      A                      A                      A
 Frequencies --   1413.4478              1415.0416              1442.7212
 Red. masses --      1.2311                 1.2244                 1.7039
 Frc consts  --      1.4491                 1.4445                 2.0896
 IR Inten    --      7.8160                26.1332                93.4100

                     52                     53                     54
                      A                      A                      A
 Frequencies --   1474.6344              1483.4460              1491.3659
 Red. masses --      1.0852                 1.0738                 1.0437
 Frc consts  --      1.3903                 1.3923                 1.3677
 IR Inten    --      1.6173                 2.8668                 3.3249

                     55                     56                     57
                      A                      A                      A
 Frequencies --   1496.1563              1499.3786              1500.1959
 Red. masses --      1.0652                 1.0400                 1.0524
 Frc consts  --      1.4049                 1.3775                 1.3955
 IR Inten    --      0.3499                 4.8164                 2.9053

                     58                     59                     60
                      A                      A                      A
 Frequencies --   1511.9566              1595.5905              1695.3709
 Red. masses --      1.0861                 1.9711                 6.8006
 Frc consts  --      1.4628                 2.9567                11.5166
 IR Inten    --      3.7527                51.6721               287.9179

                     61                     62                     63
                      A                      A                      A
 Frequencies --   1742.9624              3001.1175              3006.5880
 Red. masses --      5.4812                 1.0586                 1.0587
 Frc consts  --      9.8107                 5.6174                 5.6386
 IR Inten    --    233.1881                 3.0681                43.8745

                     64                     65                     66
                      A                      A                      A
 Frequencies --   3011.3524              3029.5626              3030.1082
 Red. masses --      1.0402                 1.0353                 1.0996
 Frc consts  --      5.5575                 5.5984                 5.9484
 IR Inten    --     78.8393                29.3535                16.7259

                     67                     68                     69
                      A                      A                      A
 Frequencies --   3032.2957              3052.1440              3052.8131
 Red. masses --      1.1013                 1.1006                 1.0598
 Frc consts  --      5.9664                 6.0409                 5.8196
 IR Inten    --     12.6961                32.2032                23.3080

                     70                     71                     72
                      A                      A                      A
 Frequencies --   3090.0492              3099.4172              3100.5973
 Red. masses --      1.1032                 1.1026                 1.1012
 Frc consts  --      6.2066                 6.2405                 6.2377
 IR Inten    --      1.4706                72.0329                39.3022

                     73                     74                     75
                      A                      A                      A
 Frequencies --   3104.3464              3139.3835              3150.2870
 Red. masses --      1.0947                 1.0896                 1.0870
 Frc consts  --      6.2155                 6.3272                 6.3561
 IR Inten    --     18.7076                 3.7723                35.3155

                     76                     77                     78
                      A                      A                      A
 Frequencies --   3476.9202              3674.3557              3699.7152
 Red. masses --      1.0748                 1.0782                 1.0761
 Frc consts  --      7.6550                 8.5767                 8.6782
 IR Inten    --     44.4016                24.4624                65.4529

 - Thermochemistry -
 -------------------
 Temperature   298.150 Kelvin.  Pressure   1.00000 Atm.
 Atom     1 has atomic number  6 and mass  12.00000

 Molecular mass:   155.14225 amu.
 Principal axes and moments of inertia in atomic units:
                           1         2         3
     Eigenvalues --   350.838506554.983286850.30660
           X            1.00000  -0.00021  -0.00000
           Y            0.00021   1.00000   0.00000
           Z            0.00000  -0.00000   1.00000
 This molecule is an asymmetric top.
 Rotational symmetry number  1.
 Rotational temperatures (Kelvin)      0.24688     0.01321     0.01264
 Rotational constants (GHZ):           5.14408     0.27532     0.26345
    5 imaginary frequencies ignored.
 Zero-point vibrational energy     645100.6 (Joules/Mol)
                                  154.18273 (Kcal/Mol)
 Warning -- explicit consideration of  15 degrees of freedom as
           vibrations may cause significant error
 Vibrational temperatures:     87.60    91.51   143.94   167.41   197.22
          (Kelvin)            262.48   336.91   355.38   355.61   365.87
                              467.51   595.00   675.53   758.26   807.71
                              983.47  1054.15  1086.23  1095.29  1155.16
                             1300.54  1336.35  1347.03  1365.64  1399.24
                             1479.86  1512.63  1526.55  1549.31  1606.48
                             1626.35  1629.58  1721.00  1781.55  1808.79
                             1850.70  1878.14  1893.97  1905.03  1905.77
                             1939.33  1984.51  2015.68  2033.64  2035.93
                             2075.75  2121.67  2134.35  2145.74  2152.64
                             2157.27  2158.45  2175.37  2295.70  2439.26
                             2507.73  4317.94  4325.81  4332.66  4358.86
                             4359.65  4362.80  4391.35  4392.32  4445.89
                             4459.37  4461.07  4466.46  4516.87  4532.56
                             5002.51  5286.58  5323.06

 Zero-point correction=                           0.245706 (Hartree/Particle)
 Thermal correction to Energy=                    0.257230
 Thermal correction to Enthalpy=                  0.258174
 Thermal correction to Gibbs Free Energy=         0.207522
 Sum of electronic and zero-point Energies=           -479.060911
 Sum of electronic and thermal Energies=              -479.049387
 Sum of electronic and thermal Enthalpies=            -479.048442
 Sum of electronic and thermal Free Energies=         -479.099094

                     E (Thermal)             CV                S
                      KCal/Mol        Cal/Mol-Kelvin    Cal/Mol-Kelvin
 Total                  161.414             41.945            106.606
 Electronic               0.000              0.000              0.000
 Translational            0.889              2.981             41.027
 Rotational               0.889              2.981             31.133
 Vibrational            159.637             35.983             34.446
 Vibration     1          0.597              1.973              4.428
 Vibration     2          0.597              1.972              4.342
 Vibration     3          0.604              1.949              3.454
 Vibration     4          0.608              1.936              3.160
 Vibration     5          0.614              1.916              2.844
 Vibration     6          0.630              1.864              2.303
 Vibration     7          0.654              1.789              1.847
 Vibration     8          0.661              1.768              1.752
 Vibration     9          0.661              1.767              1.751
 Vibration    10          0.665              1.756              1.701
 Vibration    11          0.709              1.626              1.285
 Vibration    12          0.777              1.441              0.914
 Vibration    13          0.827              1.318              0.739
 Vibration    14          0.882              1.190              0.594
 Vibration    15          0.917              1.115              0.521

 Optimization completed.
    -- Stationary point found.
 Normal termination of Gaussian 16 at Tue Jun  1 18:19:37 2021.
