 Gaussian 16, Revision A.03,
 Gaussian 16:  ES64L-G16RevA.03 25-Dec-2016

 -----------------------------
 # opt freq b3lyp/6-31g(2df,p)
 -----------------------------

 -------------------
 Title Card Required
 -------------------
 Symbolic Z-matrix:
 Charge =  0 Multiplicity = 1

 SCF Done:  E(RB3LYP) =  -307.253584914     A.U. after   13 cycles
 SCF Done:  E(RB3LYP) =  -307.256903689     A.U. after   11 cycles
 SCF Done:  E(RB3LYP) =  -307.257436930     A.U. after   10 cycles
 SCF Done:  E(RB3LYP) =  -307.258123443     A.U. after   11 cycles
 SCF Done:  E(RB3LYP) =  -307.259179096     A.U. after   10 cycles
 SCF Done:  E(RB3LYP) =  -307.261973214     A.U. after   12 cycles
 SCF Done:  E(RB3LYP) =  -307.262901052     A.U. after   11 cycles
 SCF Done:  E(RB3LYP) =  -307.264060702     A.U. after   11 cycles
 SCF Done:  E(RB3LYP) =  -307.264278806     A.U. after   11 cycles
 SCF Done:  E(RB3LYP) =  -307.264373993     A.U. after   10 cycles
 SCF Done:  E(RB3LYP) =  -307.264457653     A.U. after    9 cycles
 SCF Done:  E(RB3LYP) =  -307.264479231     A.U. after    9 cycles
 SCF Done:  E(RB3LYP) =  -307.264498770     A.U. after   10 cycles
 SCF Done:  E(RB3LYP) =  -307.264495738     A.U. after   10 cycles
 SCF Done:  E(RB3LYP) =  -307.264511316     A.U. after    9 cycles
 SCF Done:  E(RB3LYP) =  -307.264512163     A.U. after    8 cycles
 SCF Done:  E(RB3LYP) =  -307.264512012     A.U. after    8 cycles
 SCF Done:  E(RB3LYP) =  -307.264512245     A.U. after    8 cycles
 SCF Done:  E(RB3LYP) =  -307.264512303     A.U. after    7 cycles
 Optimization completed.
    -- Stationary point found.
 Normal termination of Gaussian 16 at Tue Jun  1 00:06:14 2021.

 ----------------------------------------------------------------------
 #N Geom=AllCheck Guess=TCheck SCRF=Check GenChk RB3LYP/6-31G(2df,p) Fr
 eq
 ----------------------------------------------------------------------

 Structure from the checkpoint file:  "CCdCpNpCCN.chk"
 -------------------
 Title Card Required
 -------------------
 Charge =  0 Multiplicity = 1

                         Standard orientation:
 ---------------------------------------------------------------------
 Center     Atomic      Atomic             Coordinates (Angstroms)
 Number     Number       Type             X           Y           Z
 ---------------------------------------------------------------------
      1          6           0       -2.990958   -0.526238   -0.281153
      2          6           0       -1.563523   -0.768661    0.123631
      3          6           0       -0.615055    0.172089    0.251079
      4          7           0       -0.856028    1.546812    0.098812
      5          6           0        0.803066   -0.169103    0.637929
      6          6           0        1.807937   -0.040935   -0.518875
      7          7           0        3.149549   -0.415820   -0.065404
      8          1           0       -3.415018   -1.409992   -0.768617
      9          1           0       -3.090309    0.304526   -0.992617
     10          1           0       -3.641325   -0.291643    0.573321
     11          1           0       -1.287207   -1.789365    0.366054
     12          1           0       -1.712603    1.773250   -0.387756
     13          1           0       -0.079312    2.065314   -0.287611
     14          1           0        0.847555   -1.194119    1.013406
     15          1           0        1.122856    0.489272    1.458614
     16          1           0        1.755939    0.975372   -0.951427
     17          1           0        1.513154   -0.731101   -1.317529
     18          1           0        3.478224    0.254602    0.624426
     19          1           0        3.804603   -0.365964   -0.839787
 ---------------------------------------------------------------------

 SCF Done:  E(RB3LYP) =  -307.264512303     A.U. after    1 cycles

 The electronic state is 1-A.
 Alpha  occ. eigenvalues --  -14.32278 -14.30664 -10.20528 -10.20118 -10.17678
 Alpha  occ. eigenvalues --  -10.17102 -10.15055  -0.90100  -0.87527  -0.76105
 Alpha  occ. eigenvalues --   -0.73238  -0.65589  -0.59717  -0.53728  -0.50805
 Alpha  occ. eigenvalues --   -0.48428  -0.44869  -0.43851  -0.41722  -0.40473
 Alpha  occ. eigenvalues --   -0.39621  -0.36463  -0.35354  -0.34292  -0.33119
 Alpha  occ. eigenvalues --   -0.30256  -0.23607  -0.18903
 Alpha virt. eigenvalues --    0.05321   0.07003   0.08877   0.11209   0.12847
 Alpha virt. eigenvalues --    0.13750   0.15181   0.16809   0.17941   0.18320
 Alpha virt. eigenvalues --    0.20960   0.21555   0.22514   0.23840   0.24859

 Mulliken charges:
               1
     1  C   -0.449223
     2  C   -0.146543
     3  C    0.322774
     4  N   -0.561606
     5  C   -0.250957
     6  C   -0.138345
     7  N   -0.506165
     8  H    0.118924
     9  H    0.102088
    10  H    0.123715
    11  H    0.072029
    12  H    0.237753
    13  H    0.235668
    14  H    0.118903
    15  H    0.096123
    16  H    0.066424
    17  H    0.111035
    18  H    0.222280
    19  H    0.225122
 Sum of Mulliken charges =  -0.00000

 Dipole moment (field-independent basis, Debye):
    X=              0.7120    Y=              1.6793    Z=             -1.3745  Tot=              2.2839
 Quadrupole moment (field-independent basis, Debye-Ang):
   XX=            -41.1478   YY=            -43.9487   ZZ=            -45.1173
   XY=              3.6170   XZ=             -0.1744   YZ=             -1.5198

  Exact polarizability:  92.949   7.531  69.195   3.359  -0.396  53.341
 Approx polarizability: 113.205  14.916 109.263   5.534   0.909  79.063

                      1                      2                      3
                      A                      A                      A
 Frequencies --     63.3726                79.1805                89.8187
 Red. masses --      1.9989                 1.3765                 2.0070
 Frc consts  --      0.0047                 0.0051                 0.0095
 IR Inten    --      1.9352                 0.6484                 2.2938

                      4                      5                      6
                      A                      A                      A
 Frequencies --    153.3726               244.4035               268.5518
 Red. masses --      2.8738                 1.2560                 1.5088
 Frc consts  --      0.0398                 0.0442                 0.0641
 IR Inten    --      0.5591                23.2260                14.5681

                      7                      8                      9
                      A                      A                      A
 Frequencies --    280.8184               347.5849               364.5638
 Red. masses --      2.1511                 1.8671                 2.4103
 Frc consts  --      0.0999                 0.1329                 0.1887
 IR Inten    --      3.5796                32.6063                 5.9997

                     10                     11                     12
                      A                      A                      A
 Frequencies --    405.6911               562.3951               633.7274
 Red. masses --      2.4407                 2.1309                 2.1012
 Frc consts  --      0.2367                 0.3971                 0.4972
 IR Inten    --      0.5875                66.7245                66.6374

                     13                     14                     15
                      A                      A                      A
 Frequencies --    700.2524               778.2229               792.8031
 Red. masses --      2.1658                 1.1689                 1.1703
 Frc consts  --      0.6257                 0.4171                 0.4334
 IR Inten    --    134.3688                 9.9559                16.0021

                     16                     17                     18
                      A                      A                      A
 Frequencies --    845.0227               866.0496               967.8012
 Red. masses --      2.2840                 1.4091                 2.3076
 Frc consts  --      0.9609                 0.6227                 1.2735
 IR Inten    --     23.1246                98.2104                 1.2475

                     19                     20                     21
                      A                      A                      A
 Frequencies --   1008.1072              1043.9052              1048.4978
 Red. masses --      1.8059                 1.4817                 1.8062
 Frc consts  --      1.0813                 0.9513                 1.1699
 IR Inten    --      5.2311                 3.8021                14.0165

                     22                     23                     24
                      A                      A                      A
 Frequencies --   1087.2752              1099.2257              1154.0774
 Red. masses --      2.1561                 2.2495                 1.4485
 Frc consts  --      1.5017                 1.6015                 1.1367
 IR Inten    --      5.0896                 5.1319                10.0686

                     25                     26                     27
                      A                      A                      A
 Frequencies --   1174.5431              1257.7980              1286.6267
 Red. masses --      1.4022                 1.2971                 1.7375
 Frc consts  --      1.1398                 1.2090                 1.6946
 IR Inten    --      3.6768                 2.1619                12.9049

                     28                     29                     30
                      A                      A                      A
 Frequencies --   1320.1769              1355.0524              1386.1124
 Red. masses --      1.1361                 1.4449                 1.4940
 Frc consts  --      1.1667                 1.5632                 1.6912
 IR Inten    --      1.9708                 2.1243                25.8340

                     31                     32                     33
                      A                      A                      A
 Frequencies --   1421.3173              1427.5984              1480.1502
 Red. masses --      1.4220                 1.4425                 1.0866
 Frc consts  --      1.6925                 1.7321                 1.4027
 IR Inten    --     11.4420                 7.5361                 4.8950

                     34                     35                     36
                      A                      A                      A
 Frequencies --   1488.6206              1494.8930              1514.5130
 Red. masses --      1.0516                 1.0538                 1.0889
 Frc consts  --      1.3730                 1.3875                 1.4716
 IR Inten    --      3.8361                 2.9639                 1.2921

                     37                     38                     39
                      A                      A                      A
 Frequencies --   1651.1977              1657.7352              1737.9919
 Red. masses --      1.1406                 1.0919                 6.3237
 Frc consts  --      1.8323                 1.7679                11.2542
 IR Inten    --     41.9359                24.0190                66.3924

                     40                     41                     42
                      A                      A                      A
 Frequencies --   2920.1180              2999.0894              3006.3796
 Red. masses --      1.0730                 1.0408                 1.0686
 Frc consts  --      5.3909                 5.5154                 5.6906
 IR Inten    --     95.0010                53.5350                25.8244

                     43                     44                     45
                      A                      A                      A
 Frequencies --   3040.7084              3057.4195              3085.6504
 Red. masses --      1.0982                 1.0854                 1.0956
 Frc consts  --      5.9827                 5.9777                 6.1459
 IR Inten    --     35.1698                30.3652                25.3726

                     46                     47                     48
                      A                      A                      A
 Frequencies --   3103.2741              3176.9083              3484.7097
 Red. masses --      1.0936                 1.0887                 1.0495
 Frc consts  --      6.2052                 6.4740                 7.5087
 IR Inten    --     17.2880                14.4350                 0.7994

                     49                     50                     51
                      A                      A                      A
 Frequencies --   3545.0589              3563.5567              3642.0761
 Red. masses --      1.0469                 1.0918                 1.0966
 Frc consts  --      7.7519                 8.1691                 8.5706
 IR Inten    --      2.7659                 0.0917                 5.6572

 - Thermochemistry -
 -------------------
 Temperature   298.150 Kelvin.  Pressure   1.00000 Atm.
 Atom     1 has atomic number  6 and mass  12.00000

 Molecular mass:   100.10005 amu.
 Principal axes and moments of inertia in atomic units:
                           1         2         3
     Eigenvalues --   295.244271536.718541693.64584
           X            0.99994   0.01065   0.00388
           Y           -0.01053   0.99951  -0.02944
           Z           -0.00419   0.02940   0.99956
 This molecule is an asymmetric top.
 Rotational symmetry number  1.
 Rotational temperatures (Kelvin)      0.29336     0.05636     0.05114
 Rotational constants (GHZ):           6.11271     1.17441     1.06560
 Zero-point vibrational energy     449580.5 (Joules/Mol)
                                  107.45233 (Kcal/Mol)
 Warning -- explicit consideration of  11 degrees of freedom as
           vibrations may cause significant error
 Vibrational temperatures:     91.18   113.92   129.23   220.67   351.64
          (Kelvin)            386.39   404.04   500.10   524.53   583.70
                              809.16   911.79  1007.51  1119.69  1140.67
                             1215.80  1246.05  1392.45  1450.44  1501.95
                             1508.55  1564.35  1581.54  1660.46  1689.91
                             1809.69  1851.17  1899.44  1949.62  1994.31
                             2044.96  2054.00  2129.61  2141.79  2150.82
                             2179.05  2375.71  2385.11  2500.58  4201.40
                             4315.02  4325.51  4374.90  4398.94  4439.56
                             4464.92  4570.86  5013.72  5100.55  5127.16
                             5240.14

 Zero-point correction=                           0.171236 (Hartree/Particle)
 Thermal correction to Energy=                    0.180508
 Thermal correction to Enthalpy=                  0.181452
 Thermal correction to Gibbs Free Energy=         0.137109
 Sum of electronic and zero-point Energies=           -307.093276
 Sum of electronic and thermal Energies=              -307.084004
 Sum of electronic and thermal Enthalpies=            -307.083060
 Sum of electronic and thermal Free Energies=         -307.127403

                     E (Thermal)             CV                S
                      KCal/Mol        Cal/Mol-Kelvin    Cal/Mol-Kelvin
 Total                  113.270             32.716             93.327
 Electronic               0.000              0.000              0.000
 Translational            0.889              2.981             39.721
 Rotational               0.889              2.981             28.132
 Vibrational            111.493             26.755             25.474
 Vibration     1          0.597              1.972              4.349
 Vibration     2          0.600              1.963              3.911
 Vibration     3          0.602              1.956              3.664
 Vibration     4          0.619              1.899              2.630
 Vibration     5          0.660              1.772              1.771
 Vibration     6          0.673              1.731              1.606
 Vibration     7          0.680              1.709              1.529
 Vibration     8          0.725              1.580              1.177
 Vibration     9          0.738              1.545              1.103
 Vibration    10          0.771              1.458              0.942
 Vibration    11          0.918              1.113              0.519

 Optimization completed.
    -- Stationary point found.
 Normal termination of Gaussian 16 at Tue Jun  1 00:25:45 2021.
