 Gaussian 16, Revision A.03,
 Gaussian 16:  ES64L-G16RevA.03 25-Dec-2016

 -----------------------------
 # opt freq b3lyp/6-31g(2df,p)
 -----------------------------

 -------------------
 Title Card Required
 -------------------
 Symbolic Z-matrix:
 Charge =  0 Multiplicity = 1

 SCF Done:  E(RB3LYP) =  -307.208228230     A.U. after   13 cycles
 SCF Done:  E(RB3LYP) =  -307.213087112     A.U. after   11 cycles
 SCF Done:  E(RB3LYP) =  -307.214497106     A.U. after   11 cycles
 SCF Done:  E(RB3LYP) =  -307.215794741     A.U. after   11 cycles
 SCF Done:  E(RB3LYP) =  -307.216397469     A.U. after   13 cycles
 SCF Done:  E(RB3LYP) =  -307.217913855     A.U. after   11 cycles
 SCF Done:  E(RB3LYP) =  -307.218492113     A.U. after   10 cycles
 SCF Done:  E(RB3LYP) =  -307.219192893     A.U. after   11 cycles
 SCF Done:  E(RB3LYP) =  -307.219904129     A.U. after   11 cycles
 SCF Done:  E(RB3LYP) =  -307.220602481     A.U. after   10 cycles
 SCF Done:  E(RB3LYP) =  -307.221456107     A.U. after   11 cycles
 SCF Done:  E(RB3LYP) =  -307.221582981     A.U. after   10 cycles
 SCF Done:  E(RB3LYP) =  -307.221620580     A.U. after   10 cycles
 SCF Done:  E(RB3LYP) =  -307.221622325     A.U. after    7 cycles
 SCF Done:  E(RB3LYP) =  -307.221622480     A.U. after    7 cycles
 Optimization completed.
    -- Stationary point found.
 Normal termination of Gaussian 16 at Tue Jun  1 10:56:56 2021.

 ----------------------------------------------------------------------
 #N Geom=AllCheck Guess=TCheck SCRF=Check GenChk RB3LYP/6-31G(2df,p) Fr
 eq
 ----------------------------------------------------------------------

 Structure from the checkpoint file:  "CCdCCNpCpN.chk"
 -------------------
 Title Card Required
 -------------------
 Charge =  0 Multiplicity = 1

                         Standard orientation:
 ---------------------------------------------------------------------
 Center     Atomic      Atomic             Coordinates (Angstroms)
 Number     Number       Type             X           Y           Z
 ---------------------------------------------------------------------
      1          6           0       -3.365037    0.194148   -0.128894
      2          6           0       -2.002288   -0.137881    0.401303
      3          6           0       -0.933684   -0.417985   -0.341567
      4          6           0        0.418272   -0.786312    0.198353
      5          7           0        1.493020    0.044555   -0.356261
      6          6           0        1.406083    1.432816    0.069594
      7          7           0        2.791654   -0.445317   -0.018663
      8          1           0       -4.113628   -0.528220    0.220165
      9          1           0       -3.381503    0.197843   -1.222535
     10          1           0       -3.697662    1.179210    0.221424
     11          1           0       -1.902543   -0.152062    1.487075
     12          1           0       -1.009480   -0.401733   -1.428362
     13          1           0        0.651921   -1.821655   -0.085951
     14          1           0        0.408016   -0.753261    1.307124
     15          1           0        0.439341    1.845338   -0.228975
     16          1           0        2.207686    1.999640   -0.406815
     17          1           0        1.501963    1.549601    1.166726
     18          1           0        2.948570   -1.287335   -0.566102
     19          1           0        2.814523   -0.730744    0.967966
 ---------------------------------------------------------------------

 SCF Done:  E(RB3LYP) =  -307.221622480     A.U. after    1 cycles

 The electronic state is 1-A.
 Alpha  occ. eigenvalues --  -14.33839 -14.32959 -10.20518 -10.18801 -10.18442
 Alpha  occ. eigenvalues --  -10.18121 -10.17781  -0.96295  -0.80773  -0.77452
 Alpha  occ. eigenvalues --   -0.72033  -0.66114  -0.59578  -0.54855  -0.49216
 Alpha  occ. eigenvalues --   -0.48396  -0.45902  -0.44137  -0.41319  -0.40865
 Alpha  occ. eigenvalues --   -0.39390  -0.37383  -0.36443  -0.35994  -0.34093
 Alpha  occ. eigenvalues --   -0.25763  -0.24056  -0.21477
 Alpha virt. eigenvalues --    0.02179   0.08368   0.11477   0.11651   0.13184
 Alpha virt. eigenvalues --    0.14210   0.15820   0.16586   0.17118   0.17482
 Alpha virt. eigenvalues --    0.18045   0.19070   0.19584   0.20937   0.23346

 Mulliken charges:
               1
     1  C   -0.424620
     2  C   -0.024639
     3  C   -0.040667
     4  C   -0.174190
     5  N   -0.069435
     6  C   -0.285147
     7  N   -0.461383
     8  H    0.125892
     9  H    0.121222
    10  H    0.126122
    11  H    0.080040
    12  H    0.088029
    13  H    0.096525
    14  H    0.068588
    15  H    0.120704
    16  H    0.127688
    17  H    0.081298
    18  H    0.236791
    19  H    0.207184
 Sum of Mulliken charges =  -0.00000

 Dipole moment (field-independent basis, Debye):
    X=             -1.1088    Y=             -0.9237    Z=              0.8593  Tot=              1.6796
 Quadrupole moment (field-independent basis, Debye-Ang):
   XX=            -46.0915   YY=            -42.8726   ZZ=            -44.0792
   XY=             -3.8143   XZ=              1.5649   YZ=              0.2138

  Exact polarizability:  96.287  -6.421  60.931  -3.069   0.890  62.332
 Approx polarizability: 119.326 -10.256  85.696 -10.290   2.924  98.701

                      1                      2                      3
                      A                      A                      A
 Frequencies --     80.9306                86.1377               143.5698
 Red. masses --      2.6557                 2.2642                 1.8905
 Frc consts  --      0.0102                 0.0099                 0.0230
 IR Inten    --      0.0627                 0.5970                 1.5840

                      4                      5                      6
                      A                      A                      A
 Frequencies --    214.9346               247.4501               283.3805
 Red. masses --      1.3063                 1.1637                 2.1211
 Frc consts  --      0.0356                 0.0420                 0.1004
 IR Inten    --      0.9984                 2.7615                 1.4121

                      7                      8                      9
                      A                      A                      A
 Frequencies --    304.0672               331.3377               372.5707
 Red. masses --      1.2001                 2.6395                 3.4134
 Frc consts  --      0.0654                 0.1707                 0.2792
 IR Inten    --     32.4740                 1.1077                 2.0002

                     10                     11                     12
                      A                      A                      A
 Frequencies --    393.0675               490.0689               553.2490
 Red. masses --      1.9258                 2.5595                 2.4846
 Frc consts  --      0.1753                 0.3622                 0.4481
 IR Inten    --      0.1657                11.9517                 0.4580

                     13                     14                     15
                      A                      A                      A
 Frequencies --    774.7318               853.5393               921.7539
 Red. masses --      1.6019                 3.3482                 1.8064
 Frc consts  --      0.5665                 1.4372                 0.9043
 IR Inten    --      5.9630                25.6381                 3.1624

                     16                     17                     18
                      A                      A                      A
 Frequencies --    957.7692               988.8665              1020.2485
 Red. masses --      2.0459                 1.4021                 1.0947
 Frc consts  --      1.1057                 0.8078                 0.6714
 IR Inten    --     53.6991                 9.4405                25.1212

                     19                     20                     21
                      A                      A                      A
 Frequencies --   1053.1574              1070.4525              1089.0344
 Red. masses --      2.0485                 1.5438                 3.0016
 Frc consts  --      1.3387                 1.0422                 2.0974
 IR Inten    --     73.6646                 1.8083                 4.3126

                     22                     23                     24
                      A                      A                      A
 Frequencies --   1133.6140              1162.0582              1193.4655
 Red. masses --      1.4490                 1.7129                 1.8574
 Frc consts  --      1.0971                 1.3628                 1.5588
 IR Inten    --      1.2896                 5.0070                 4.1648

                     25                     26                     27
                      A                      A                      A
 Frequencies --   1226.9539              1266.6079              1316.2644
 Red. masses --      2.1679                 1.3917                 1.2463
 Frc consts  --      1.9229                 1.3154                 1.2722
 IR Inten    --      1.8142                 5.3256                 4.4280

                     28                     29                     30
                      A                      A                      A
 Frequencies --   1332.9813              1357.0848              1389.8717
 Red. masses --      1.2522                 1.4419                 1.4173
 Frc consts  --      1.3109                 1.5646                 1.6130
 IR Inten    --      3.4925                19.0878                21.5681

                     31                     32                     33
                      A                      A                      A
 Frequencies --   1412.0113              1444.8678              1479.1015
 Red. masses --      1.2597                 1.1773                 1.0729
 Frc consts  --      1.4798                 1.4481                 1.3829
 IR Inten    --      1.5552                 2.3299                 1.6542

                     34                     35                     36
                      A                      A                      A
 Frequencies --   1480.1627              1489.4817              1491.6977
 Red. masses --      1.0464                 1.0731                 1.0547
 Frc consts  --      1.3508                 1.4026                 1.3827
 IR Inten    --      6.3689                11.4281                 5.7659

                     37                     38                     39
                      A                      A                      A
 Frequencies --   1502.7485              1666.0389              1745.3091
 Red. masses --      1.0505                 1.0843                 6.1458
 Frc consts  --      1.3978                 1.7733                11.0300
 IR Inten    --      3.6403                16.2740                 5.6229

                     40                     41                     42
                      A                      A                      A
 Frequencies --   2896.4723              2921.8183              3015.7673
 Red. masses --      1.0710                 1.0619                 1.0865
 Frc consts  --      5.2938                 5.3411                 5.8219
 IR Inten    --     49.3844                85.4242                32.8346

                     43                     44                     45
                      A                      A                      A
 Frequencies --   3018.7367              3065.6081              3086.5370
 Red. masses --      1.0373                 1.0987                 1.0683
 Frc consts  --      5.5693                 6.0834                 5.9962
 IR Inten    --     32.7129                20.3263                25.2838

                     46                     47                     48
                      A                      A                      A
 Frequencies --   3104.4952              3126.8819              3138.1472
 Red. masses --      1.0967                 1.0921                 1.0872
 Frc consts  --      6.2275                 6.2911                 6.3080
 IR Inten    --      6.4547                18.8766                29.7278

                     49                     50                     51
                      A                      A                      A
 Frequencies --   3139.8905              3333.8237              3522.9831
 Red. masses --      1.1037                 1.0581                 1.0813
 Frc consts  --      6.4109                 6.9292                 7.9074
 IR Inten    --     19.4262                29.0721                 0.3585

 - Thermochemistry -
 -------------------
 Temperature   298.150 Kelvin.  Pressure   1.00000 Atm.
 Atom     1 has atomic number  6 and mass  12.00000

 Molecular mass:   100.10005 amu.
 Principal axes and moments of inertia in atomic units:
                           1         2         3
     Eigenvalues --   256.422031601.950041742.12303
           X            0.99996  -0.00524   0.00779
           Y            0.00523   0.99999   0.00041
           Z           -0.00779  -0.00037   0.99997
 This molecule is an asymmetric top.
 Rotational symmetry number  1.
 Rotational temperatures (Kelvin)      0.33778     0.05407     0.04972
 Rotational constants (GHZ):           7.03817     1.12659     1.03594
 Zero-point vibrational energy     446756.2 (Joules/Mol)
                                  106.77729 (Kcal/Mol)
 Warning -- explicit consideration of  12 degrees of freedom as
           vibrations may cause significant error
 Vibrational temperatures:    116.44   123.93   206.56   309.24   356.03
          (Kelvin)            407.72   437.48   476.72   536.05   565.54
                              705.10   796.00  1114.67  1228.05  1326.20
                             1378.02  1422.76  1467.91  1515.26  1540.14
                             1566.88  1631.02  1671.94  1717.13  1765.31
                             1822.37  1893.81  1917.86  1952.54  1999.72
                             2031.57  2078.84  2128.10  2129.62  2143.03
                             2146.22  2162.12  2397.06  2511.11  4167.38
                             4203.84  4339.02  4343.29  4410.73  4440.84
                             4466.68  4498.89  4515.09  4517.60  4796.63
                             5068.79

 Zero-point correction=                           0.170160 (Hartree/Particle)
 Thermal correction to Energy=                    0.179086
 Thermal correction to Enthalpy=                  0.180030
 Thermal correction to Gibbs Free Energy=         0.136898
 Sum of electronic and zero-point Energies=           -307.051462
 Sum of electronic and thermal Energies=              -307.042536
 Sum of electronic and thermal Enthalpies=            -307.041592
 Sum of electronic and thermal Free Energies=         -307.084724

                     E (Thermal)             CV                S
                      KCal/Mol        Cal/Mol-Kelvin    Cal/Mol-Kelvin
 Total                  112.378             31.806             90.779
 Electronic               0.000              0.000              0.000
 Translational            0.889              2.981             39.721
 Rotational               0.889              2.981             28.061
 Vibrational            110.601             25.844             22.997
 Vibration     1          0.600              1.962              3.868
 Vibration     2          0.601              1.959              3.746
 Vibration     3          0.616              1.910              2.756
 Vibration     4          0.645              1.818              2.001
 Vibration     5          0.661              1.767              1.749
 Vibration     6          0.682              1.704              1.513
 Vibration     7          0.695              1.666              1.394
 Vibration     8          0.714              1.613              1.254
 Vibration     9          0.744              1.528              1.069
 Vibration    10          0.760              1.485              0.988
 Vibration    11          0.846              1.272              0.683
 Vibration    12          0.909              1.133              0.537

 Optimization completed.
    -- Stationary point found.
 Normal termination of Gaussian 16 at Tue Jun  1 11:16:44 2021.
