 Gaussian 16, Revision A.03,
 Gaussian 16:  ES64L-G16RevA.03 25-Dec-2016

 -----------------------------
 # opt freq b3lyp/6-31g(2df,p)
 -----------------------------

 -------------------
 Title Card Required
 -------------------
 Symbolic Z-matrix:
 Charge =  0 Multiplicity = 1

 SCF Done:  E(RB3LYP) =  -479.275477801     A.U. after   13 cycles
 SCF Done:  E(RB3LYP) =  -479.285481900     A.U. after   12 cycles
 SCF Done:  E(RB3LYP) =  -479.291519562     A.U. after   11 cycles
 SCF Done:  E(RB3LYP) =  -479.299771109     A.U. after   12 cycles
 SCF Done:  E(RB3LYP) =  -479.304751506     A.U. after   12 cycles
 SCF Done:  E(RB3LYP) =  -479.308686963     A.U. after   12 cycles
 SCF Done:  E(RB3LYP) =  -479.310040580     A.U. after   12 cycles
 SCF Done:  E(RB3LYP) =  -479.310601123     A.U. after   10 cycles
 SCF Done:  E(RB3LYP) =  -479.311226971     A.U. after   11 cycles
 SCF Done:  E(RB3LYP) =  -479.311486179     A.U. after   11 cycles
 SCF Done:  E(RB3LYP) =  -479.315464954     A.U. after    9 cycles
 SCF Done:  E(RB3LYP) =  -479.315480731     A.U. after    9 cycles
 SCF Done:  E(RB3LYP) =  -479.315482761     A.U. after    8 cycles
 SCF Done:  E(RB3LYP) =  -479.315483402     A.U. after    7 cycles
 SCF Done:  E(RB3LYP) =  -479.315483612     A.U. after    7 cycles
 SCF Done:  E(RB3LYP) =  -479.315483755     A.U. after    6 cycles
 SCF Done:  E(RB3LYP) =  -479.315483836     A.U. after    6 cycles
 SCF Done:  E(RB3LYP) =  -479.315483936     A.U. after    6 cycles
 SCF Done:  E(RB3LYP) =  -479.315483981     A.U. after    6 cycles
 Optimization completed.
    -- Stationary point found.
 Normal termination of Gaussian 16 at Tue Jun  1 12:07:00 2021.

 ----------------------------------------------------------------------
 #N Geom=AllCheck Guess=TCheck SCRF=Check GenChk RB3LYP/6-31G(2df,p) Fr
 eq
 ----------------------------------------------------------------------

 Structure from the checkpoint file:  "CCdCNNC1CNCpCpC1.chk"
 -------------------
 Title Card Required
 -------------------
 Charge =  0 Multiplicity = 1

                         Standard orientation:
 ---------------------------------------------------------------------
 Center     Atomic      Atomic             Coordinates (Angstroms)
 Number     Number       Type             X           Y           Z
 ---------------------------------------------------------------------
      1          6           0        4.780469    0.364617   -0.855116
      2          6           0        3.502598    0.677850   -0.133853
      3          6           0        2.658625   -0.247397    0.330815
      4          7           0        1.532497   -0.009207    1.125940
      5          7           0        0.445107   -0.879679    0.874546
      6          6           0       -0.464948   -0.439999   -0.187536
      7          6           0       -1.533532   -1.530123   -0.437415
      8          7           0       -2.746363   -0.774687   -0.738741
      9          6           0       -2.757155    0.354698    0.195635
     10          6           0       -3.817737    1.387398   -0.164054
     11          6           0       -1.303086    0.849092    0.087110
     12          1           0        5.661881    0.715993   -0.301999
     13          1           0        4.819404    0.846740   -1.840600
     14          1           0        4.896310   -0.713323   -1.006473
     15          1           0        3.281256    1.730840    0.039521
     16          1           0        2.828579   -1.308306    0.167296
     17          1           0        1.272121    0.975459    1.157609
     18          1           0       -0.060574   -0.998058    1.747449
     19          1           0        0.155649   -0.298296   -1.075983
     20          1           0       -1.620032   -2.149182    0.475469
     21          1           0       -1.266198   -2.199719   -1.259542
     22          1           0       -3.581875   -1.344713   -0.659646
     23          1           0       -2.931918    0.017825    1.237599
     24          1           0       -3.668982    1.742534   -1.188443
     25          1           0       -3.773971    2.244828    0.515283
     26          1           0       -4.825016    0.961590   -0.095360
     27          1           0       -0.979532    1.374623    0.991889
     28          1           0       -1.217189    1.549365   -0.749810
 ---------------------------------------------------------------------

 SCF Done:  E(RB3LYP) =  -479.315483981     A.U. after    1 cycles

 The electronic state is 1-A.
 Alpha  occ. eigenvalues --  -14.34858 -14.34228 -14.31061 -10.21088 -10.20960
 Alpha  occ. eigenvalues --  -10.20280 -10.19362 -10.17920 -10.17430 -10.16960
 Alpha  occ. eigenvalues --  -10.15904  -0.97659  -0.91701  -0.82269  -0.75920
 Alpha  occ. eigenvalues --   -0.75623  -0.71811  -0.66871  -0.64137  -0.58769
 Alpha  occ. eigenvalues --   -0.57206  -0.56524  -0.51325  -0.50389  -0.47284
 Alpha  occ. eigenvalues --   -0.46587  -0.44314  -0.43204  -0.40381  -0.40082
 Alpha  occ. eigenvalues --   -0.39565  -0.38561  -0.37640  -0.36533  -0.35881
 Alpha  occ. eigenvalues --   -0.34744  -0.34700  -0.34105  -0.32004  -0.30506
 Alpha  occ. eigenvalues --   -0.23676  -0.22426  -0.19036
 Alpha virt. eigenvalues --    0.04842   0.07110   0.09232   0.10348   0.10814
 Alpha virt. eigenvalues --    0.12675   0.12773   0.13866   0.14076   0.15640
 Alpha virt. eigenvalues --    0.16112   0.16484   0.17502   0.18277   0.18347

 Mulliken charges:
               1
     1  C   -0.413336
     2  C   -0.122019
     3  C    0.083071
     4  N   -0.297623
     5  N   -0.289202
     6  C    0.068424
     7  C   -0.192669
     8  N   -0.300669
     9  C    0.073050
    10  C   -0.403759
    11  C   -0.225911
    12  H    0.116584
    13  H    0.114916
    14  H    0.114034
    15  H    0.060476
    16  H    0.098055
    17  H    0.219901
    18  H    0.223232
    19  H    0.095961
    20  H    0.077067
    21  H    0.106850
    22  H    0.214105
    23  H    0.043830
    24  H    0.123483
    25  H    0.112635
    26  H    0.108617
    27  H    0.086600
    28  H    0.104295
 Sum of Mulliken charges =  -0.00000

 Dipole moment (field-independent basis, Debye):
    X=             -1.8437    Y=              0.4421    Z=              0.5721  Tot=              1.9804
 Quadrupole moment (field-independent basis, Debye-Ang):
   XX=            -68.7627   YY=            -66.7323   ZZ=            -70.8381
   XY=              2.7975   XZ=             -4.5336   YZ=              1.0306

  Exact polarizability: 146.135   6.271 102.524 -10.429  -0.961  87.523
 Approx polarizability: 170.232  15.217 153.977 -15.901  -5.452 139.012

                      1                      2                      3
                      A                      A                      A
 Frequencies --     27.8767                49.1321                61.3374
 Red. masses --      3.1129                 3.0654                 3.4513
 Frc consts  --      0.0014                 0.0044                 0.0077
 IR Inten    --      0.0796                 0.0466                 2.0926

                      4                      5                      6
                      A                      A                      A
 Frequencies --    110.9021               176.0122               192.7738
 Red. masses --      1.4876                 2.9555                 2.1698
 Frc consts  --      0.0108                 0.0539                 0.0475
 IR Inten    --      0.2950                 6.1799                 0.4063

                      7                      8                      9
                      A                      A                      A
 Frequencies --    200.9327               237.7628               257.5268
 Red. masses --      1.6046                 1.0839                 2.2942
 Frc consts  --      0.0382                 0.0361                 0.0896
 IR Inten    --      1.9111                 0.0573                 0.5475

                     10                     11                     12
                      A                      A                      A
 Frequencies --    276.4868               327.7797               340.7508
 Red. masses --      2.5076                 2.4866                 3.0830
 Frc consts  --      0.1129                 0.1574                 0.2109
 IR Inten    --      3.5995                 6.6665                 1.0111

                     13                     14                     15
                      A                      A                      A
 Frequencies --    462.0425               469.0281               496.4483
 Red. masses --      2.3940                 2.1476                 2.5397
 Frc consts  --      0.3011                 0.2784                 0.3688
 IR Inten    --      2.5238                 4.4257                 1.1257

                     16                     17                     18
                      A                      A                      A
 Frequencies --    541.2468               582.0129               614.3327
 Red. masses --      3.7341                 2.9284                 2.2838
 Frc consts  --      0.6445                 0.5845                 0.5078
 IR Inten    --      6.6000                23.4930                 8.0259

                     19                     20                     21
                      A                      A                      A
 Frequencies --    708.5354               791.4850               816.8181
 Red. masses --      1.7027                 1.9720                 1.7784
 Frc consts  --      0.5036                 0.7279                 0.6991
 IR Inten    --    102.0948                36.4952                11.6328

                     22                     23                     24
                      A                      A                      A
 Frequencies --    830.3929               863.9191               893.6022
 Red. masses --      2.3108                 1.5213                 2.1678
 Frc consts  --      0.9388                 0.6690                 1.0199
 IR Inten    --     50.9763                35.4162                28.7787

                     25                     26                     27
                      A                      A                      A
 Frequencies --    915.9034               948.8488               951.4659
 Red. masses --      1.7319                 1.4202                 1.4880
 Frc consts  --      0.8560                 0.7533                 0.7937
 IR Inten    --      3.6335                 9.0038                21.4645

                     28                     29                     30
                      A                      A                      A
 Frequencies --    997.5983              1006.1545              1020.2088
 Red. masses --      1.2204                 1.9076                 1.5896
 Frc consts  --      0.7156                 1.1378                 0.9748
 IR Inten    --     34.6603                 4.2635                 3.4145

                     31                     32                     33
                      A                      A                      A
 Frequencies --   1062.8998              1063.0489              1085.2629
 Red. masses --      1.4356                 2.3937                 3.0592
 Frc consts  --      0.9556                 1.5938                 2.1229
 IR Inten    --      1.0623                 4.4620                11.3161

                     34                     35                     36
                      A                      A                      A
 Frequencies --   1087.0271              1131.7071              1139.3041
 Red. masses --      2.3831                 2.1146                 1.7493
 Frc consts  --      1.6591                 1.5957                 1.3378
 IR Inten    --     13.9057                 8.6660                 6.6240

                     37                     38                     39
                      A                      A                      A
 Frequencies --   1157.7175              1171.5028              1222.0117
 Red. masses --      2.8181                 2.6524                 1.8667
 Frc consts  --      2.2254                 2.1447                 1.6424
 IR Inten    --      7.1597                 9.9381                 6.7411

                     40                     41                     42
                      A                      A                      A
 Frequencies --   1227.0017              1248.7738              1285.9471
 Red. masses --      1.4066                 2.0285                 1.3615
 Frc consts  --      1.2477                 1.8638                 1.3266
 IR Inten    --      4.0754                89.7364                18.8751

                     43                     44                     45
                      A                      A                      A
 Frequencies --   1302.2859              1304.0780              1322.2383
 Red. masses --      1.2595                 1.2792                 1.2510
 Frc consts  --      1.2585                 1.2818                 1.2886
 IR Inten    --     19.7283                 1.7348                 0.9052

                     46                     47                     48
                      A                      A                      A
 Frequencies --   1328.6884              1358.0922              1383.2696
 Red. masses --      1.3413                 1.2818                 1.3021
 Frc consts  --      1.3952                 1.3930                 1.4679
 IR Inten    --     12.7022                 0.6266                 7.9739

                     49                     50                     51
                      A                      A                      A
 Frequencies --   1398.1939              1410.2960              1415.9300
 Red. masses --      1.4152                 1.3367                 1.2352
 Frc consts  --      1.6301                 1.5664                 1.4590
 IR Inten    --      3.1317                10.3270                 6.8041

                     52                     53                     54
                      A                      A                      A
 Frequencies --   1441.9627              1470.1968              1478.9090
 Red. masses --      1.4121                 1.1783                 1.0464
 Frc consts  --      1.7299                 1.5006                 1.3484
 IR Inten    --     12.2476                 2.4228                 3.9375

                     55                     56                     57
                      A                      A                      A
 Frequencies --   1481.1080              1492.4455              1499.2202
 Red. masses --      1.1112                 1.0702                 1.0539
 Frc consts  --      1.4363                 1.4044                 1.3957
 IR Inten    --      1.2162                 3.6297                 3.3640

                     58                     59                     60
                      A                      A                      A
 Frequencies --   1499.7034              1514.3800              1526.4350
 Red. masses --      1.0614                 1.1019                 1.2124
 Frc consts  --      1.4064                 1.4889                 1.6644
 IR Inten    --      3.1087                 5.1243                10.7025

                     61                     62                     63
                      A                      A                      A
 Frequencies --   1741.1655              2882.3329              2921.4802
 Red. masses --      5.3251                 1.0804                 1.0731
 Frc consts  --      9.5118                 5.2882                 5.3962
 IR Inten    --     76.4722                68.8835                79.9833

                     64                     65                     66
                      A                      A                      A
 Frequencies --   3006.9059              3030.2986              3041.3266
 Red. masses --      1.0380                 1.0357                 1.0594
 Frc consts  --      5.5298                 5.6037                 5.7734
 IR Inten    --     68.6752                27.4283                21.9518

                     67                     68                     69
                      A                      A                      A
 Frequencies --   3047.3912              3067.5361              3080.9232
 Red. masses --      1.0990                 1.0873                 1.0941
 Frc consts  --      6.0132                 6.0279                 6.1190
 IR Inten    --     31.0307                11.5789                19.5387

                     70                     71                     72
                      A                      A                      A
 Frequencies --   3089.1734              3093.2881              3095.7908
 Red. masses --      1.0979                 1.0966                 1.1004
 Frc consts  --      6.1731                 6.1823                 6.2134
 IR Inten    --     40.9907                15.6243                27.2540

                     73                     74                     75
                      A                      A                      A
 Frequencies --   3112.0885              3124.8922              3173.7917
 Red. masses --      1.1020                 1.0890                 1.0892
 Frc consts  --      6.2884                 6.2653                 6.4644
 IR Inten    --     28.4570                32.1386                11.3347

                     76                     77                     78
                      A                      A                      A
 Frequencies --   3445.8174              3499.2077              3526.5128
 Red. masses --      1.0733                 1.0747                 1.0746
 Frc consts  --      7.5088                 7.7534                 7.8737
 IR Inten    --     10.7628                 2.4656                 0.8746

 - Thermochemistry -
 -------------------
 Temperature   298.150 Kelvin.  Pressure   1.00000 Atm.
 Atom     1 has atomic number  6 and mass  12.00000

 Molecular mass:   155.14225 amu.
 Principal axes and moments of inertia in atomic units:
                           1         2         3
     Eigenvalues --   682.294214328.910334532.13642
           X            0.99994  -0.00368  -0.01045
           Y            0.00374   0.99997   0.00621
           Z            0.01043  -0.00625   0.99993
 This molecule is an asymmetric top.
 Rotational symmetry number  1.
 Warning -- assumption of classical behavior for rotation
           may cause significant error
 Rotational temperatures (Kelvin)      0.12695     0.02001     0.01911
 Rotational constants (GHZ):           2.64511     0.41690     0.39821
 Zero-point vibrational energy     661887.1 (Joules/Mol)
                                  158.19481 (Kcal/Mol)
 Warning -- explicit consideration of  18 degrees of freedom as
           vibrations may cause significant error
 Vibrational temperatures:     40.11    70.69    88.25   159.56   253.24
          (Kelvin)            277.36   289.10   342.09   370.52   397.80
                              471.60   490.26   664.78   674.83   714.28
                              778.73   837.39   883.89  1019.42  1138.77
                             1175.22  1194.75  1242.99  1285.69  1317.78
                             1365.18  1368.95  1435.32  1447.63  1467.85
                             1529.28  1529.49  1561.45  1563.99  1628.27
                             1639.20  1665.70  1685.53  1758.20  1765.38
                             1796.71  1850.19  1873.70  1876.28  1902.41
                             1911.69  1953.99  1990.22  2011.69  2029.10
                             2037.21  2074.66  2115.29  2127.82  2130.98
                             2147.30  2157.04  2157.74  2178.86  2196.20
                             2505.15  4147.03  4203.36  4326.27  4359.92
                             4375.79  4384.52  4413.50  4432.76  4444.63
                             4450.55  4454.15  4477.60  4496.02  4566.38
                             4957.76  5034.58  5073.87

 Zero-point correction=                           0.252099 (Hartree/Particle)
 Thermal correction to Energy=                    0.264417
 Thermal correction to Enthalpy=                  0.265361
 Thermal correction to Gibbs Free Energy=         0.212568
 Sum of electronic and zero-point Energies=           -479.063385
 Sum of electronic and thermal Energies=              -479.051067
 Sum of electronic and thermal Enthalpies=            -479.050123
 Sum of electronic and thermal Free Energies=         -479.102916

                     E (Thermal)             CV                S
                      KCal/Mol        Cal/Mol-Kelvin    Cal/Mol-Kelvin
 Total                  165.924             45.944            111.112
 Electronic               0.000              0.000              0.000
 Translational            0.889              2.981             41.027
 Rotational               0.889              2.981             30.971
 Vibrational            164.147             39.983             39.114
 Vibration     1          0.593              1.984              5.975
 Vibration     2          0.595              1.978              4.852
 Vibration     3          0.597              1.973              4.414
 Vibration     4          0.607              1.940              3.253
 Vibration     5          0.628              1.872              2.370
 Vibration     6          0.635              1.850              2.201
 Vibration     7          0.638              1.839              2.125
 Vibration     8          0.656              1.783              1.820
 Vibration     9          0.667              1.750              1.678
 Vibration    10          0.678              1.717              1.555
 Vibration    11          0.711              1.620              1.271
 Vibration    12          0.720              1.594              1.209
 Vibration    13          0.820              1.334              0.760
 Vibration    14          0.826              1.319              0.740
 Vibration    15          0.852              1.258              0.667
 Vibration    16          0.896              1.159              0.563
 Vibration    17          0.939              1.070              0.482
 Vibration    18          0.974              1.002              0.426

 Optimization completed.
    -- Stationary point found.
 Normal termination of Gaussian 16 at Tue Jun  1 13:04:52 2021.
