 Gaussian 16, Revision A.03,
 Gaussian 16:  ES64L-G16RevA.03 25-Dec-2016

 -----------------------------
 # opt freq b3lyp/6-31g(2df,p)
 -----------------------------

 -------------------
 Title Card Required
 -------------------
 Symbolic Z-matrix:
 Charge =  0 Multiplicity = 1

 SCF Done:  E(RB3LYP) =  -383.432004779     A.U. after   14 cycles
 SCF Done:  E(RB3LYP) =  -383.436673899     A.U. after   12 cycles
 SCF Done:  E(RB3LYP) =  -383.439454304     A.U. after   10 cycles
 SCF Done:  E(RB3LYP) =  -383.440074411     A.U. after   10 cycles
 SCF Done:  E(RB3LYP) =  -383.375525921     A.U. after   12 cycles
 SCF Done:  E(RB3LYP) =  -383.437104644     A.U. after   12 cycles
 SCF Done:  E(RB3LYP) =  -383.440424473     A.U. after    9 cycles
 SCF Done:  E(RB3LYP) =  -383.443474479     A.U. after   12 cycles
 SCF Done:  E(RB3LYP) =  -383.445123327     A.U. after   12 cycles
 SCF Done:  E(RB3LYP) =  -383.445868453     A.U. after   11 cycles
 SCF Done:  E(RB3LYP) =  -383.449457609     A.U. after   11 cycles
 SCF Done:  E(RB3LYP) =  -383.449642029     A.U. after   10 cycles
 SCF Done:  E(RB3LYP) =  -383.449484765     A.U. after   11 cycles
 SCF Done:  E(RB3LYP) =  -383.449664264     A.U. after   11 cycles
 SCF Done:  E(RB3LYP) =  -383.449665201     A.U. after    9 cycles
 SCF Done:  E(RB3LYP) =  -383.449665011     A.U. after    9 cycles
 SCF Done:  E(RB3LYP) =  -383.449666849     A.U. after    8 cycles
 SCF Done:  E(RB3LYP) =  -383.449666897     A.U. after    7 cycles
 SCF Done:  E(RB3LYP) =  -383.449666947     A.U. after    7 cycles
 Optimization completed.
    -- Stationary point found.
 Normal termination of Gaussian 16 at Tue Jun  1 23:18:32 2021.

 ----------------------------------------------------------------------
 #N Geom=AllCheck Guess=TCheck SCRF=Check GenChk RB3LYP/6-31G(2df,p) Fr
 eq
 ----------------------------------------------------------------------

 Structure from the checkpoint file:  "CCdC1CNCdCN1C.chk"
 -------------------
 Title Card Required
 -------------------
 Charge =  0 Multiplicity = 1

                         Standard orientation:
 ---------------------------------------------------------------------
 Center     Atomic      Atomic             Coordinates (Angstroms)
 Number     Number       Type             X           Y           Z
 ---------------------------------------------------------------------
      1          6           0       -2.836965   -0.540702   -0.462824
      2          6           0       -1.530317   -1.105585    0.021569
      3          6           0       -0.338911   -0.506414    0.192290
      4          6           0        0.881136   -1.331616    0.581402
      5          7           0        1.988989   -1.017828   -0.320582
      6          6           0        2.255012    0.358014   -0.386903
      7          6           0        1.276063    1.246872   -0.170314
      8          7           0       -0.046572    0.855702    0.095770
      9          6           0       -1.024629    1.895270    0.348310
     10          1           0       -3.304267   -1.242256   -1.164081
     11          1           0       -2.721563    0.408552   -0.988228
     12          1           0       -3.563567   -0.387743    0.347661
     13          1           0       -1.547129   -2.169482    0.241646
     14          1           0        0.644846   -2.394259    0.504422
     15          1           0        1.142089   -1.106571    1.631561
     16          1           0        2.808616   -1.580089   -0.140076
     17          1           0        3.257275    0.667617   -0.649375
     18          1           0        1.440818    2.312008   -0.248345
     19          1           0       -0.540768    2.729859    0.867882
     20          1           0       -1.814288    1.509290    0.995195
     21          1           0       -1.487316    2.292920   -0.565766
 ---------------------------------------------------------------------

 SCF Done:  E(RB3LYP) =  -383.449666947     A.U. after    1 cycles

 The electronic state is 1-A.
 Alpha  occ. eigenvalues --  -14.34227 -14.32263 -10.20966 -10.20621 -10.20464
 Alpha  occ. eigenvalues --  -10.18660 -10.18480 -10.17072 -10.15814  -0.95256
 Alpha  occ. eigenvalues --   -0.89798  -0.78058  -0.72903  -0.72103  -0.64682
 Alpha  occ. eigenvalues --   -0.64179  -0.58374  -0.51641  -0.49469  -0.46913
 Alpha  occ. eigenvalues --   -0.45837  -0.44273  -0.43367  -0.41529  -0.40361
 Alpha  occ. eigenvalues --   -0.39320  -0.38764  -0.37127  -0.35056  -0.33544
 Alpha  occ. eigenvalues --   -0.31960  -0.28402  -0.21588  -0.15149
 Alpha virt. eigenvalues --    0.03244   0.07564   0.08849   0.10209   0.11959
 Alpha virt. eigenvalues --    0.13834   0.14198   0.15035   0.16198   0.17014
 Alpha virt. eigenvalues --    0.17630   0.18899   0.19779   0.20901   0.22338

 Mulliken charges:
               1
     1  C   -0.456273
     2  C   -0.149518
     3  C    0.352443
     4  C   -0.247316
     5  N   -0.316998
     6  C   -0.103914
     7  C   -0.034558
     8  N   -0.130711
     9  C   -0.346433
    10  H    0.118183
    11  H    0.121869
    12  H    0.116311
    13  H    0.071321
    14  H    0.106441
    15  H    0.091570
    16  H    0.229880
    17  H    0.098933
    18  H    0.099552
    19  H    0.120505
    20  H    0.138320
    21  H    0.120392
 Sum of Mulliken charges =  -0.00000

 Dipole moment (field-independent basis, Debye):
    X=              0.4336    Y=              0.3736    Z=              0.9119  Tot=              1.0767
 Quadrupole moment (field-independent basis, Debye-Ang):
   XX=            -49.8097   YY=            -50.2223   ZZ=            -58.0286
   XY=             -2.5710   XZ=              0.6332   YZ=             -1.1407

  Exact polarizability: 121.762   2.945  96.098  -0.763  -1.243  57.409
 Approx polarizability: 174.757   4.048 145.229  -4.702   0.762  89.425

                      1                      2                      3
                      A                      A                      A
 Frequencies --     60.9703               114.1347               126.6366
 Red. masses --      2.6028                 1.5705                 1.9815
 Frc consts  --      0.0057                 0.0121                 0.0187
 IR Inten    --      0.7184                 1.0682                 2.9712

                      4                      5                      6
                      A                      A                      A
 Frequencies --    202.7428               211.6288               250.5942
 Red. masses --      1.3415                 2.0108                 2.2283
 Frc consts  --      0.0325                 0.0531                 0.0824
 IR Inten    --      0.3516                 1.2583                 1.6610

                      7                      8                      9
                      A                      A                      A
 Frequencies --    296.7543               353.5737               407.5617
 Red. masses --      2.2382                 2.6174                 3.4193
 Frc consts  --      0.1161                 0.1928                 0.3346
 IR Inten    --      5.1001                 1.4405                 3.6792

                     10                     11                     12
                      A                      A                      A
 Frequencies --    437.2781               529.3346               566.0435
 Red. masses --      2.8164                 4.1613                 4.1119
 Frc consts  --      0.3173                 0.6870                 0.7762
 IR Inten    --     39.2087                 8.4289                 2.3665

                     13                     14                     15
                      A                      A                      A
 Frequencies --    609.6725               645.1476               685.9563
 Red. masses --      1.7887                 3.7347                 1.3334
 Frc consts  --      0.3917                 0.9159                 0.3697
 IR Inten    --     97.3251                 2.3587                26.9324

                     16                     17                     18
                      A                      A                      A
 Frequencies --    738.5931               792.3560               830.5342
 Red. masses --      3.4127                 1.1966                 1.1506
 Frc consts  --      1.0969                 0.4426                 0.4676
 IR Inten    --     14.3625                18.9011                 2.8827

                     19                     20                     21
                      A                      A                      A
 Frequencies --    869.3324               967.8872               972.2385
 Red. masses --      2.9474                 2.1861                 2.6682
 Frc consts  --      1.3124                 1.2066                 1.4860
 IR Inten    --     25.1439                19.6016                25.4218

                     22                     23                     24
                      A                      A                      A
 Frequencies --   1039.6395              1049.9048              1067.7495
 Red. masses --      2.1570                 1.5294                 1.5723
 Frc consts  --      1.3736                 0.9933                 1.0561
 IR Inten    --     14.3368                 2.6962                10.3816

                     25                     26                     27
                      A                      A                      A
 Frequencies --   1085.1918              1134.0817              1145.4851
 Red. masses --      2.1734                 2.2858                 1.3010
 Frc consts  --      1.5080                 1.7321                 1.0058
 IR Inten    --     39.8916                19.0080                 7.5090

                     28                     29                     30
                      A                      A                      A
 Frequencies --   1178.1976              1215.5663              1262.2359
 Red. masses --      2.7065                 1.2026                 1.2662
 Frc consts  --      2.2136                 1.0469                 1.1886
 IR Inten    --      8.1575                 2.3285                 3.6342

                     31                     32                     33
                      A                      A                      A
 Frequencies --   1278.7686              1319.9816              1349.0911
 Red. masses --      2.6851                 1.4075                 1.5692
 Frc consts  --      2.5870                 1.4449                 1.6827
 IR Inten    --     55.4238                17.0217                64.9410

                     34                     35                     36
                      A                      A                      A
 Frequencies --   1398.9608              1416.2810              1438.9556
 Red. masses --      1.4359                 1.5108                 1.4573
 Frc consts  --      1.6557                 1.7855                 1.7778
 IR Inten    --     84.7997                45.2326                29.4028

                     37                     38                     39
                      A                      A                      A
 Frequencies --   1474.4554              1478.4601              1483.8580
 Red. masses --      1.2979                 1.2502                 1.1420
 Frc consts  --      1.6625                 1.6101                 1.4816
 IR Inten    --     10.8535                21.4923                 3.8772

                     40                     41                     42
                      A                      A                      A
 Frequencies --   1496.2521              1498.6894              1500.5794
 Red. masses --      1.0885                 1.1849                 1.0648
 Frc consts  --      1.4357                 1.5681                 1.4127
 IR Inten    --     12.4159                 5.4225                 5.5693

                     43                     44                     45
                      A                      A                      A
 Frequencies --   1523.5475              1718.9338              1740.8146
 Red. masses --      1.0767                 6.6308                 6.5360
 Frc consts  --      1.4725                11.5435                11.6698
 IR Inten    --     23.3641                21.8468                99.2564

                     46                     47                     48
                      A                      A                      A
 Frequencies --   2927.2849              2995.3518              3004.8416
 Red. masses --      1.0719                 1.0473                 1.0506
 Frc consts  --      5.4119                 5.5365                 5.5892
 IR Inten    --     77.5296                68.8939                67.8708

                     49                     50                     51
                      A                      A                      A
 Frequencies --   3054.2400              3057.9912              3103.3725
 Red. masses --      1.0895                 1.0918                 1.0896
 Frc consts  --      5.9881                 6.0153                 6.1825
 IR Inten    --      2.5403                61.3106                18.8419

                     52                     53                     54
                      A                      A                      A
 Frequencies --   3126.2759              3129.9722              3157.9393
 Red. masses --      1.0964                 1.0934                 1.0877
 Frc consts  --      6.3134                 6.3113                 6.3909
 IR Inten    --     21.0006                 1.5045                25.0893

                     55                     56                     57
                      A                      A                      A
 Frequencies --   3216.2761              3237.2386              3583.8226
 Red. masses --      1.0862                 1.0989                 1.0756
 Frc consts  --      6.6203                 6.7850                 8.1397
 IR Inten    --      0.5297                13.4098                 5.1033

 - Thermochemistry -
 -------------------
 Temperature   298.150 Kelvin.  Pressure   1.00000 Atm.
 Atom     1 has atomic number  6 and mass  12.00000

 Molecular mass:   124.10005 amu.
 Principal axes and moments of inertia in atomic units:
                           1         2         3
     Eigenvalues --   671.097011307.020891833.36914
           X            0.99992  -0.00924   0.00849
           Y            0.00929   0.99994  -0.00573
           Z           -0.00844   0.00581   0.99995
 This molecule is an asymmetric top.
 Rotational symmetry number  1.
 Warning -- assumption of classical behavior for rotation
           may cause significant error
 Rotational temperatures (Kelvin)      0.12906     0.06627     0.04724
 Rotational constants (GHZ):           2.68924     1.38081     0.98439
 Zero-point vibrational energy     481851.4 (Joules/Mol)
                                  115.16524 (Kcal/Mol)
 Warning -- explicit consideration of  13 degrees of freedom as
           vibrations may cause significant error
 Vibrational temperatures:     87.72   164.21   182.20   291.70   304.49
          (Kelvin)            360.55   426.96   508.71   586.39   629.15
                              761.59   814.41   877.18   928.22   986.94
                             1062.67  1140.02  1194.95  1250.78  1392.57
                             1398.83  1495.81  1510.58  1536.25  1561.35
                             1631.69  1648.10  1695.16  1748.93  1816.08
                             1839.86  1899.16  1941.04  2012.79  2037.71
                             2070.34  2121.41  2127.17  2134.94  2152.77
                             2156.28  2159.00  2192.05  2473.16  2504.64
                             4211.71  4309.64  4323.30  4394.37  4399.77
                             4465.06  4498.01  4503.33  4543.57  4627.50
                             4657.66  5156.32

 Zero-point correction=                           0.183527 (Hartree/Particle)
 Thermal correction to Energy=                    0.192991
 Thermal correction to Enthalpy=                  0.193935
 Thermal correction to Gibbs Free Energy=         0.149241
 Sum of electronic and zero-point Energies=           -383.266139
 Sum of electronic and thermal Energies=              -383.256676
 Sum of electronic and thermal Enthalpies=            -383.255732
 Sum of electronic and thermal Free Energies=         -383.300426

                     E (Thermal)             CV                S
                      KCal/Mol        Cal/Mol-Kelvin    Cal/Mol-Kelvin
 Total                  121.104             35.460             94.068
 Electronic               0.000              0.000              0.000
 Translational            0.889              2.981             40.362
 Rotational               0.889              2.981             28.866
 Vibrational            119.326             29.498             24.841
 Vibration     1          0.597              1.973              4.426
 Vibration     2          0.607              1.938              3.197
 Vibration     3          0.611              1.926              2.997
 Vibration     4          0.639              1.836              2.108
 Vibration     5          0.643              1.823              2.030
 Vibration     6          0.663              1.762              1.726
 Vibration     7          0.690              1.680              1.435
 Vibration     8          0.730              1.568              1.150
 Vibration     9          0.772              1.454              0.935
 Vibration    10          0.798              1.389              0.835
 Vibration    11          0.884              1.185              0.589
 Vibration    12          0.922              1.105              0.512
 Vibration    13          0.969              1.011              0.433

 Optimization completed.
    -- Stationary point found.
 Normal termination of Gaussian 16 at Tue Jun  1 23:51:15 2021.
