 Gaussian 16, Revision A.03,
 Gaussian 16:  ES64L-G16RevA.03 25-Dec-2016

 -----------------------------
 # opt freq b3lyp/6-31g(2df,p)
 -----------------------------

 -------------------
 Title Card Required
 -------------------
 Symbolic Z-matrix:
 Charge =  0 Multiplicity = 1

 SCF Done:  E(RB3LYP) =  -464.475516800     A.U. after   13 cycles
 SCF Done:  E(RB3LYP) =  -464.483079888     A.U. after   12 cycles
 SCF Done:  E(RB3LYP) =  -464.487032380     A.U. after   11 cycles
 SCF Done:  E(RB3LYP) =  -464.492684794     A.U. after   13 cycles
 SCF Done:  E(RB3LYP) =  -464.494079800     A.U. after   11 cycles
 SCF Done:  E(RB3LYP) =  -464.494944287     A.U. after   10 cycles
 SCF Done:  E(RB3LYP) =  -464.495070907     A.U. after   10 cycles
 SCF Done:  E(RB3LYP) =  -464.495200165     A.U. after    9 cycles
 SCF Done:  E(RB3LYP) =  -464.495313633     A.U. after    9 cycles
 SCF Done:  E(RB3LYP) =  -464.495360156     A.U. after   10 cycles
 SCF Done:  E(RB3LYP) =  -464.497444779     A.U. after   11 cycles
 SCF Done:  E(RB3LYP) =  -464.498337006     A.U. after   11 cycles
 SCF Done:  E(RB3LYP) =  -464.498486863     A.U. after    6 cycles
 SCF Done:  E(RB3LYP) =  -464.497836283     A.U. after   11 cycles
 SCF Done:  E(RB3LYP) =  -464.498158371     A.U. after   10 cycles
 SCF Done:  E(RB3LYP) =  -464.498497692     A.U. after    7 cycles
 SCF Done:  E(RB3LYP) =  -464.498496235     A.U. after   10 cycles
 SCF Done:  E(RB3LYP) =  -464.498534542     A.U. after    9 cycles
 SCF Done:  E(RB3LYP) =  -464.498535023     A.U. after    7 cycles
 Optimization completed.
    -- Stationary point found.
 Normal termination of Gaussian 16 at Tue Jun  1 01:47:15 2021.

 ----------------------------------------------------------------------
 #N Geom=AllCheck Guess=TCheck SCRF=Check GenChk RB3LYP/6-31G(2df,p) Fr
 eq
 ----------------------------------------------------------------------

 Structure from the checkpoint file:  "CCdCNNCpCpCCCC.chk"
 -------------------
 Title Card Required
 -------------------
 Charge =  0 Multiplicity = 1

                         Standard orientation:
 ---------------------------------------------------------------------
 Center     Atomic      Atomic             Coordinates (Angstroms)
 Number     Number       Type             X           Y           Z
 ---------------------------------------------------------------------
      1          6           0       -5.207595    0.826374    0.224619
      2          6           0       -4.039554    0.173261   -0.454780
      3          6           0       -3.013084   -0.384089    0.195462
      4          7           0       -1.970675   -1.110570   -0.380067
      5          7           0       -0.735920   -1.101319    0.303806
      6          6           0        0.256115   -0.138825   -0.209722
      7          6           0       -0.143253    1.287246    0.176035
      8          6           0        1.630338   -0.546191    0.342355
      9          6           0        2.811073    0.261687   -0.206588
     10          6           0        4.167971   -0.249209    0.292157
     11          6           0        5.350319    0.560010   -0.247226
     12          1           0       -5.341903    1.865784   -0.102672
     13          1           0       -5.079089    0.835071    1.311834
     14          1           0       -6.152168    0.308556    0.009633
     15          1           0       -4.060584    0.136170   -1.543714
     16          1           0       -2.946755   -0.362686    1.279677
     17          1           0       -1.890473   -0.997596   -1.388754
     18          1           0       -0.351887   -2.038708    0.234885
     19          1           0        0.302429   -0.198179   -1.315911
     20          1           0       -0.119049    1.406321    1.264393
     21          1           0       -1.155517    1.516953   -0.164921
     22          1           0        0.535372    2.018958   -0.271333
     23          1           0        1.797309   -1.608595    0.110491
     24          1           0        1.603106   -0.472537    1.437357
     25          1           0        2.704435    1.317543    0.071502
     26          1           0        2.795474    0.233012   -1.305270
     27          1           0        4.284598   -1.303561    0.008123
     28          1           0        4.179721   -0.229326    1.389930
     29          1           0        5.383594    0.531110   -1.342139
     30          1           0        6.303594    0.171659    0.124629
     31          1           0        5.279978    1.611685    0.052208
 ---------------------------------------------------------------------

 SCF Done:  E(RB3LYP) =  -464.498535023     A.U. after    1 cycles

 The electronic state is 1-A.
 Alpha  occ. eigenvalues --  -14.34830 -14.34068 -10.21175 -10.19353 -10.18166
 Alpha  occ. eigenvalues --  -10.18078 -10.18057 -10.17343 -10.16787 -10.16751
 Alpha  occ. eigenvalues --  -10.15537  -0.97506  -0.83578  -0.79476  -0.76134
 Alpha  occ. eigenvalues --   -0.72914  -0.70652  -0.65306  -0.63263  -0.58578
 Alpha  occ. eigenvalues --   -0.57496  -0.56116  -0.49562  -0.48891  -0.47279
 Alpha  occ. eigenvalues --   -0.47067  -0.44000  -0.41951  -0.40683  -0.39536
 Alpha  occ. eigenvalues --   -0.39424  -0.38735  -0.37479  -0.37070  -0.36516
 Alpha  occ. eigenvalues --   -0.34852  -0.34094  -0.33693  -0.33248  -0.32315
 Alpha  occ. eigenvalues --   -0.31744  -0.30509  -0.24029  -0.18560
 Alpha virt. eigenvalues --    0.05477   0.08126   0.09107   0.10449   0.11413
 Alpha virt. eigenvalues --    0.12259   0.12798   0.12989   0.13648   0.15235
 Alpha virt. eigenvalues --    0.15611   0.16212   0.16929   0.17245   0.18396

 Mulliken charges:
               1
     1  C   -0.412529
     2  C   -0.132746
     3  C    0.095127
     4  N   -0.297925
     5  N   -0.280485
     6  C    0.061523
     7  C   -0.377054
     8  C   -0.199195
     9  C   -0.171112
    10  C   -0.162681
    11  C   -0.381220
    12  H    0.113246
    13  H    0.112356
    14  H    0.114791
    15  H    0.058250
    16  H    0.097428
    17  H    0.217396
    18  H    0.225295
    19  H    0.048022
    20  H    0.116579
    21  H    0.130841
    22  H    0.111752
    23  H    0.083559
    24  H    0.106692
    25  H    0.100567
    26  H    0.091783
    27  H    0.093783
    28  H    0.096546
    29  H    0.113227
    30  H    0.111937
    31  H    0.114248
 Sum of Mulliken charges =  -0.00000

 Dipole moment (field-independent basis, Debye):
    X=              1.7097    Y=             -0.0573    Z=             -0.9063  Tot=              1.9358
 Quadrupole moment (field-independent basis, Debye-Ang):
   XX=            -75.1389   YY=            -71.6540   ZZ=            -69.4560
   XY=             -2.2024   XZ=              1.2421   YZ=              1.3130

  Exact polarizability: 164.329 -11.818  98.855   3.270  -1.080  97.203
 Approx polarizability: 183.434 -19.592 149.477   9.117  -4.111 153.648

                      1                      2                      3
                      A                      A                      A
 Frequencies --     34.5432                44.3993                59.2672
 Red. masses --      3.2878                 3.1240                 1.8688
 Frc consts  --      0.0023                 0.0036                 0.0039
 IR Inten    --      0.0678                 0.2264                 0.3849

                      4                      5                      6
                      A                      A                      A
 Frequencies --     90.8236               111.7673               119.2995
 Red. masses --      2.4935                 2.4505                 1.8542
 Frc consts  --      0.0121                 0.0180                 0.0155
 IR Inten    --      0.2782                 0.2175                 1.2883

                      7                      8                      9
                      A                      A                      A
 Frequencies --    139.4642               192.1613               208.1203
 Red. masses --      1.9120                 1.7999                 1.7291
 Frc consts  --      0.0219                 0.0392                 0.0441
 IR Inten    --      0.4556                 2.2860                 0.2350

                     10                     11                     12
                      A                      A                      A
 Frequencies --    241.6121               246.4340               260.5872
 Red. masses --      1.3851                 1.5494                 1.6144
 Frc consts  --      0.0476                 0.0554                 0.0646
 IR Inten    --      0.0477                 0.7174                 3.6700

                     13                     14                     15
                      A                      A                      A
 Frequencies --    266.8812               301.0545               327.4415
 Red. masses --      2.6060                 2.4870                 2.5212
 Frc consts  --      0.1094                 0.1328                 0.1593
 IR Inten    --      2.2275                 2.2708                 2.4337

                     16                     17                     18
                      A                      A                      A
 Frequencies --    413.4455               464.8161               484.2110
 Red. masses --      2.7264                 2.8852                 2.5785
 Frc consts  --      0.2746                 0.3673                 0.3562
 IR Inten    --      1.2300                 8.2576                 4.8236

                     19                     20                     21
                      A                      A                      A
 Frequencies --    500.1745               579.2853               659.5486
 Red. masses --      2.2972                 3.2954                 1.5414
 Frc consts  --      0.3386                 0.6516                 0.3951
 IR Inten    --      2.7281                 3.0281                93.6733

                     22                     23                     24
                      A                      A                      A
 Frequencies --    737.0166               789.2027               806.5323
 Red. masses --      1.0813                 1.2448                 1.6786
 Frc consts  --      0.3461                 0.4568                 0.6433
 IR Inten    --      2.6225                 1.3228                14.3832

                     25                     26                     27
                      A                      A                      A
 Frequencies --    842.6866               868.5725               905.0736
 Red. masses --      1.7951                 1.9484                 1.8069
 Frc consts  --      0.7511                 0.8660                 0.8721
 IR Inten    --     45.4916                23.6810                 1.6504

                     28                     29                     30
                      A                      A                      A
 Frequencies --    918.6871               947.8041               958.5614
 Red. masses --      1.2284                 1.5024                 1.8639
 Frc consts  --      0.6109                 0.7952                 1.0091
 IR Inten    --      1.6830                10.3203                 4.9506

                     31                     32                     33
                      A                      A                      A
 Frequencies --    997.5806              1019.4219              1034.5373
 Red. masses --      1.1473                 1.6493                 1.8401
 Frc consts  --      0.6727                 1.0099                 1.1603
 IR Inten    --     31.1444                 0.2852                 1.9560

                     34                     35                     36
                      A                      A                      A
 Frequencies --   1062.9154              1064.2072              1077.9722
 Red. masses --      1.6015                 2.1554                 2.3367
 Frc consts  --      1.0660                 1.4382                 1.5998
 IR Inten    --      0.9259                 0.9028                 0.6627

                     37                     38                     39
                      A                      A                      A
 Frequencies --   1096.6183              1124.7330              1159.7431
 Red. masses --      2.2738                 2.0845                 2.7586
 Frc consts  --      1.6111                 1.5536                 2.1860
 IR Inten    --      4.3309                19.6238                21.9518

                     40                     41                     42
                      A                      A                      A
 Frequencies --   1183.2373              1197.4742              1246.9124
 Red. masses --      2.4751                 2.0567                 1.5759
 Frc consts  --      2.0417                 1.7376                 1.4436
 IR Inten    --      2.6382                 3.1273                 4.5019

                     43                     44                     45
                      A                      A                      A
 Frequencies --   1256.0460              1277.9137              1301.1089
 Red. masses --      2.6200                 1.2675                 1.2599
 Frc consts  --      2.4353                 1.2196                 1.2566
 IR Inten    --     74.3876                 6.5523                14.7879

                     46                     47                     48
                      A                      A                      A
 Frequencies --   1315.9230              1320.7813              1332.7627
 Red. masses --      1.2202                 1.2662                 1.0591
 Frc consts  --      1.2449                 1.3015                 1.1084
 IR Inten    --      0.3144                 1.1361                 0.6636

                     49                     50                     51
                      A                      A                      A
 Frequencies --   1342.8255              1376.7448              1380.4724
 Red. masses --      1.2515                 1.4045                 1.3765
 Frc consts  --      1.3296                 1.5685                 1.5455
 IR Inten    --      2.2073                 3.2915                20.2778

                     52                     53                     54
                      A                      A                      A
 Frequencies --   1400.1479              1409.7728              1414.1458
 Red. masses --      1.5796                 1.2488                 1.2533
 Frc consts  --      1.8246                 1.4623                 1.4767
 IR Inten    --      0.4675                10.9374                 3.2387

                     55                     56                     57
                      A                      A                      A
 Frequencies --   1416.8181              1478.7973              1480.2983
 Red. masses --      1.2403                 1.0471                 1.0797
 Frc consts  --      1.4670                 1.3491                 1.3940
 IR Inten    --     10.0864                 3.6698                 0.4424

                     58                     59                     60
                      A                      A                      A
 Frequencies --   1484.0423              1486.8037              1492.7009
 Red. masses --      1.1754                 1.0866                 1.0605
 Frc consts  --      1.5251                 1.4152                 1.3922
 IR Inten    --      1.5021                 1.7986                 2.0317

                     61                     62                     63
                      A                      A                      A
 Frequencies --   1498.9685              1499.9295              1504.1786
 Red. masses --      1.0673                 1.0416                 1.0765
 Frc consts  --      1.4129                 1.3807                 1.4350
 IR Inten    --      1.0427                 4.6689                 3.7684

                     64                     65                     66
                      A                      A                      A
 Frequencies --   1506.8347              1513.4565              1535.1989
 Red. masses --      1.0614                 1.0907                 1.2439
 Frc consts  --      1.4199                 1.4720                 1.7273
 IR Inten    --      3.4562                 3.6304                14.1398

                     67                     68                     69
                      A                      A                      A
 Frequencies --   1739.7600              2890.2181              2995.4531
 Red. masses --      5.2575                 1.0803                 1.0635
 Frc consts  --      9.3758                 5.3171                 5.6221
 IR Inten    --     95.5039                60.9661                21.3488

                     70                     71                     72
                      A                      A                      A
 Frequencies --   3004.8446              3006.8139              3015.8485
 Red. masses --      1.0381                 1.0612                 1.0634
 Frc consts  --      5.5225                 5.6526                 5.6985
 IR Inten    --     74.5315                 3.3975                47.2338

                     73                     74                     75
                      A                      A                      A
 Frequencies --   3028.5973              3035.1090              3041.3136
 Red. masses --      1.0371                 1.0880                 1.0404
 Frc consts  --      5.6047                 5.9048                 5.6698
 IR Inten    --     32.4245                13.4361                11.4046

                     76                     77                     78
                      A                      A                      A
 Frequencies --   3043.7717              3044.2328              3065.9041
 Red. masses --      1.0967                 1.0991                 1.1025
 Frc consts  --      5.9862                 6.0012                 6.1057
 IR Inten    --      3.2007                33.2692                57.8154

                     79                     80                     81
                      A                      A                      A
 Frequencies --   3091.1590              3095.0641              3101.1546
 Red. masses --      1.0965                 1.1021                 1.1009
 Frc consts  --      6.1733                 6.2203                 6.2381
 IR Inten    --     17.3661                59.4607                38.4112

                     82                     83                     84
                      A                      A                      A
 Frequencies --   3112.3997              3124.8195              3125.4657
 Red. masses --      1.1008                 1.0890                 1.1000
 Frc consts  --      6.2829                 6.2650                 6.3311
 IR Inten    --     24.5327                31.9087                19.8532

                     85                     86                     87
                      A                      A                      A
 Frequencies --   3178.1597              3456.7312              3496.3621
 Red. masses --      1.0892                 1.0736                 1.0748
 Frc consts  --      6.4823                 7.5582                 7.7412
 IR Inten    --      9.7241                12.9761                 3.0143

 - Thermochemistry -
 -------------------
 Temperature   298.150 Kelvin.  Pressure   1.00000 Atm.
 Atom     1 has atomic number  6 and mass  12.00000

 Molecular mass:   156.16265 amu.
 Principal axes and moments of inertia in atomic units:
                           1         2         3
     Eigenvalues --   468.380115999.692776251.79670
           X            0.99999  -0.00459  -0.00181
           Y            0.00460   0.99997   0.00541
           Z            0.00179  -0.00542   0.99998
 This molecule is an asymmetric top.
 Rotational symmetry number  1.
 Warning -- assumption of classical behavior for rotation
           may cause significant error
 Rotational temperatures (Kelvin)      0.18492     0.01444     0.01385
 Rotational constants (GHZ):           3.85316     0.30081     0.28868
 Zero-point vibrational energy     744703.4 (Joules/Mol)
                                  177.98838 (Kcal/Mol)
 Warning -- explicit consideration of  20 degrees of freedom as
           vibrations may cause significant error
 Vibrational temperatures:     49.70    63.88    85.27   130.67   160.81
          (Kelvin)            171.65   200.66   276.48   299.44   347.63
                              354.56   374.93   383.98   433.15   471.12
                              594.86   668.77   696.67   719.64   833.46
                              948.94  1060.40  1135.49  1160.42  1212.44
                             1249.68  1302.20  1321.79  1363.68  1379.16
                             1435.30  1466.72  1488.47  1529.30  1531.16
                             1550.96  1577.79  1618.24  1668.61  1702.41
                             1722.90  1794.03  1807.17  1838.63  1872.01
                             1893.32  1900.31  1917.55  1932.03  1980.83
                             1986.19  2014.50  2028.35  2034.64  2038.49
                             2127.66  2129.82  2135.21  2139.18  2147.66
                             2156.68  2158.06  2164.18  2168.00  2177.53
                             2208.81  2503.13  4158.38  4309.79  4323.30
                             4326.13  4339.13  4357.48  4366.84  4375.77
                             4379.31  4379.97  4411.15  4447.49  4453.11
                             4461.87  4478.05  4495.92  4496.85  4572.66
                             4973.47  5030.49

 Zero-point correction=                           0.283643 (Hartree/Particle)
 Thermal correction to Energy=                    0.298050
 Thermal correction to Enthalpy=                  0.298994
 Thermal correction to Gibbs Free Energy=         0.241732
 Sum of electronic and zero-point Energies=           -464.214892
 Sum of electronic and thermal Energies=              -464.200485
 Sum of electronic and thermal Enthalpies=            -464.199541
 Sum of electronic and thermal Free Energies=         -464.256803

                     E (Thermal)             CV                S
                      KCal/Mol        Cal/Mol-Kelvin    Cal/Mol-Kelvin
 Total                  187.029             51.846            120.518
 Electronic               0.000              0.000              0.000
 Translational            0.889              2.981             41.047
 Rotational               0.889              2.981             31.241
 Vibrational            185.252             45.884             48.230
 Vibration     1          0.594              1.983              5.550
 Vibration     2          0.595              1.980              5.052
 Vibration     3          0.597              1.974              4.481
 Vibration     4          0.602              1.956              3.642
 Vibration     5          0.607              1.940              3.238
 Vibration     6          0.609              1.933              3.112
 Vibration     7          0.615              1.914              2.811
 Vibration     8          0.634              1.851              2.207
 Vibration     9          0.641              1.828              2.060
 Vibration    10          0.658              1.777              1.791
 Vibration    11          0.661              1.769              1.756
 Vibration    12          0.669              1.745              1.658
 Vibration    13          0.672              1.734              1.616
 Vibration    14          0.693              1.672              1.411
 Vibration    15          0.711              1.621              1.273
 Vibration    16          0.777              1.441              0.915
 Vibration    17          0.822              1.328              0.752
 Vibration    18          0.840              1.285              0.699
 Vibration    19          0.856              1.250              0.658
 Vibration    20          0.936              1.076              0.487

 Optimization completed.
    -- Stationary point found.
 Normal termination of Gaussian 16 at Tue Jun  1 02:40:57 2021.
