 Gaussian 16, Revision A.03,
 Gaussian 16:  ES64L-G16RevA.03 25-Dec-2016

 -----------------------------
 # opt freq b3lyp/6-31g(2df,p)
 -----------------------------

 -------------------
 Title Card Required
 -------------------
 Symbolic Z-matrix:
 Charge =  0 Multiplicity = 1

 SCF Done:  E(RB3LYP) =  -353.812797455     A.U. after   12 cycles
 SCF Done:  E(RB3LYP) =  -353.816673475     A.U. after   10 cycles
 SCF Done:  E(RB3LYP) =  -353.817195655     A.U. after    9 cycles
 SCF Done:  E(RB3LYP) =  -353.817528249     A.U. after   10 cycles
 SCF Done:  E(RB3LYP) =  -353.818623185     A.U. after   12 cycles
 SCF Done:  E(RB3LYP) =  -353.819282091     A.U. after   10 cycles
 SCF Done:  E(RB3LYP) =  -353.820540034     A.U. after   10 cycles
 SCF Done:  E(RB3LYP) =  -353.820995538     A.U. after   11 cycles
 SCF Done:  E(RB3LYP) =  -353.821129064     A.U. after   10 cycles
 SCF Done:  E(RB3LYP) =  -353.821246735     A.U. after    9 cycles
 SCF Done:  E(RB3LYP) =  -353.821549627     A.U. after   11 cycles
 SCF Done:  E(RB3LYP) =  -353.821801084     A.U. after    9 cycles
 SCF Done:  E(RB3LYP) =  -353.823740891     A.U. after   11 cycles
 SCF Done:  E(RB3LYP) =  -353.824285041     A.U. after    9 cycles
 SCF Done:  E(RB3LYP) =  -353.824335527     A.U. after    8 cycles
 SCF Done:  E(RB3LYP) =  -353.824343272     A.U. after    8 cycles
 SCF Done:  E(RB3LYP) =  -353.824343878     A.U. after    6 cycles
 Optimization completed.
    -- Stationary point found.
 Normal termination of Gaussian 16 at Tue Jun  1 19:30:39 2021.

 ----------------------------------------------------------------------
 #N Geom=AllCheck Guess=TCheck SCRF=Check GenChk RB3LYP/6-31G(2df,p) Fr
 eq
 ----------------------------------------------------------------------

 Structure from the checkpoint file:  "CCdCCpCpCCCC.chk"
 -------------------
 Title Card Required
 -------------------
 Charge =  0 Multiplicity = 1

                         Standard orientation:
 ---------------------------------------------------------------------
 Center     Atomic      Atomic             Coordinates (Angstroms)
 Number     Number       Type             X           Y           Z
 ---------------------------------------------------------------------
      1          6           0       -4.251163   -1.002635    0.050436
      2          6           0       -2.947279   -0.468216   -0.464977
      3          6           0       -1.982986    0.064885    0.281655
      4          6           0       -0.669979    0.601910   -0.225488
      5          6           0       -0.547486    2.102952    0.097962
      6          6           0        0.502530   -0.221665    0.355477
      7          6           0        1.885264    0.123888   -0.209914
      8          6           0        2.994387   -0.794159    0.317504
      9          6           0        4.377493   -0.453361   -0.243810
     10          1           0       -5.103293   -0.474387   -0.395897
     11          1           0       -4.324042   -0.903878    1.137602
     12          1           0       -4.376290   -2.062985   -0.203096
     13          1           0       -2.799618   -0.531332   -1.543768
     14          1           0       -2.128992    0.130655    1.362180
     15          1           0       -0.654347    0.484251   -1.318069
     16          1           0       -0.540211    2.268496    1.182069
     17          1           0       -1.393891    2.658042   -0.317252
     18          1           0        0.370759    2.533518   -0.311831
     19          1           0        0.298408   -1.283910    0.169777
     20          1           0        0.514787   -0.102871    1.448706
     21          1           0        2.143257    1.163708    0.027341
     22          1           0        1.855747    0.060999   -1.307174
     23          1           0        2.746642   -1.836243    0.075704
     24          1           0        3.019482   -0.737030    1.413936
     25          1           0        4.392344   -0.534946   -1.336511
     26          1           0        5.146661   -1.125254    0.150053
     27          1           0        4.667904    0.571577    0.013159
 ---------------------------------------------------------------------

 SCF Done:  E(RB3LYP) =  -353.824343878     A.U. after    1 cycles

 The electronic state is 1-A.
 Alpha  occ. eigenvalues --  -10.18285 -10.17542 -10.17496 -10.17447 -10.17263
 Alpha  occ. eigenvalues --  -10.17213 -10.16932 -10.16906 -10.16818  -0.81502
 Alpha  occ. eigenvalues --   -0.78317  -0.75471  -0.70433  -0.67456  -0.63425
 Alpha  occ. eigenvalues --   -0.58151  -0.56075  -0.54108  -0.46816  -0.45249
 Alpha  occ. eigenvalues --   -0.43952  -0.41566  -0.40965  -0.40596  -0.40098
 Alpha  occ. eigenvalues --   -0.39014  -0.37920  -0.35926  -0.35457  -0.34269
 Alpha  occ. eigenvalues --   -0.33488  -0.32447  -0.31627  -0.31479  -0.30323
 Alpha  occ. eigenvalues --   -0.23544
 Alpha virt. eigenvalues --    0.03348   0.09305   0.10797   0.10910   0.12121
 Alpha virt. eigenvalues --    0.12792   0.14084   0.14981   0.15961   0.16575
 Alpha virt. eigenvalues --    0.17139   0.17665   0.18078   0.18653   0.19086

 Mulliken charges:
               1
     1  C   -0.424348
     2  C   -0.052433
     3  C   -0.016905
     4  C   -0.032091
     5  C   -0.387605
     6  C   -0.171675
     7  C   -0.170052
     8  C   -0.162089
     9  C   -0.379769
    10  H    0.122275
    11  H    0.116815
    12  H    0.122226
    13  H    0.073884
    14  H    0.070553
    15  H    0.066117
    16  H    0.109638
    17  H    0.114613
    18  H    0.113868
    19  H    0.093672
    20  H    0.087440
    21  H    0.094836
    22  H    0.089525
    23  H    0.093679
    24  H    0.093320
    25  H    0.112438
    26  H    0.109760
    27  H    0.112309
 Sum of Mulliken charges =  -0.00000

 Dipole moment (field-independent basis, Debye):
    X=             -0.0224    Y=             -0.0748    Z=             -0.0321  Tot=              0.0844
 Quadrupole moment (field-independent basis, Debye-Ang):
   XX=            -59.2818   YY=            -60.2559   ZZ=            -58.3381
   XY=              0.8128   XZ=              0.4480   YZ=              0.5121

  Exact polarizability: 131.206   8.697  89.210   3.729   2.330  86.718
 Approx polarizability: 150.140  13.228 127.260   9.854   6.700 137.162

                      1                      2                      3
                      A                      A                      A
 Frequencies --     46.4750                57.0953                85.9284
 Red. masses --      2.3316                 2.0268                 2.4143
 Frc consts  --      0.0030                 0.0039                 0.0105
 IR Inten    --      0.0126                 0.0519                 0.0266

                      4                      5                      6
                      A                      A                      A
 Frequencies --    110.0668               134.1356               166.4712
 Red. masses --      1.8144                 1.9683                 2.0672
 Frc consts  --      0.0130                 0.0209                 0.0338
 IR Inten    --      0.0062                 0.0285                 0.1834

                      7                      8                      9
                      A                      A                      A
 Frequencies --    198.7811               215.1458               242.8053
 Red. masses --      1.6266                 1.3511                 1.1294
 Frc consts  --      0.0379                 0.0368                 0.0392
 IR Inten    --      0.3742                 0.7865                 0.1173

                     10                     11                     12
                      A                      A                      A
 Frequencies --    255.3229               296.2231               302.0172
 Red. masses --      1.3801                 2.5372                 3.5673
 Frc consts  --      0.0530                 0.1312                 0.1917
 IR Inten    --      0.4361                 0.2156                 0.2778

                     13                     14                     15
                      A                      A                      A
 Frequencies --    376.9268               438.9148               488.9009
 Red. masses --      2.6266                 2.3435                 2.4529
 Frc consts  --      0.2199                 0.2660                 0.3454
 IR Inten    --      0.2960                 1.1235                 0.7678

                     16                     17                     18
                      A                      A                      A
 Frequencies --    536.0357               735.1441               785.6825
 Red. masses --      2.7137                 1.0849                 1.2282
 Frc consts  --      0.4594                 0.3454                 0.4467
 IR Inten    --      0.0793                 3.0477                 0.1094

                     19                     20                     21
                      A                      A                      A
 Frequencies --    818.7323               863.8901               904.2840
 Red. masses --      1.6274                 2.0141                 1.8553
 Frc consts  --      0.6427                 0.8856                 0.8939
 IR Inten    --      0.0334                 0.9716                 1.2883

                     22                     23                     24
                      A                      A                      A
 Frequencies --    907.8140               915.6806               978.3514
 Red. masses --      1.8787                 1.2173                 1.5870
 Frc consts  --      0.9122                 0.6014                 0.8950
 IR Inten    --      1.0379                 0.3541                17.2766

                     25                     26                     27
                      A                      A                      A
 Frequencies --   1012.3245              1020.5055              1028.0796
 Red. masses --      1.2638                 1.1507                 2.7386
 Frc consts  --      0.7631                 0.7061                 1.7054
 IR Inten    --      6.4355                11.3867                 2.6705

                     28                     29                     30
                      A                      A                      A
 Frequencies --   1066.7308              1068.4983              1077.5106
 Red. masses --      2.3921                 1.5416                 2.5118
 Frc consts  --      1.6038                 1.0370                 1.7182
 IR Inten    --      0.5687                 0.5847                 4.9717

                     31                     32                     33
                      A                      A                      A
 Frequencies --   1091.9688              1131.2652              1180.4006
 Red. masses --      1.9456                 2.3366                 2.0130
 Frc consts  --      1.3668                 1.7619                 1.6526
 IR Inten    --      0.2064                 0.3127                 4.2735

                     34                     35                     36
                      A                      A                      A
 Frequencies --   1189.9688              1239.2433              1264.2360
 Red. masses --      2.1314                 1.4299                 1.2728
 Frc consts  --      1.7782                 1.2938                 1.1986
 IR Inten    --      0.5331                 4.3437                 1.8202

                     37                     38                     39
                      A                      A                      A
 Frequencies --   1297.2008              1313.2938              1330.6915
 Red. masses --      1.3279                 1.2340                 1.1424
 Frc consts  --      1.3165                 1.2539                 1.1918
 IR Inten    --      1.5573                 0.5289                 0.0596

                     40                     41                     42
                      A                      A                      A
 Frequencies --   1334.0888              1348.5739              1364.3543
 Red. masses --      1.1631                 1.2508                 1.3390
 Frc consts  --      1.2196                 1.3403                 1.4686
 IR Inten    --      1.3620                 2.9711                 2.8688

                     43                     44                     45
                      A                      A                      A
 Frequencies --   1382.4440              1396.9837              1406.2296
 Red. masses --      1.4307                 1.5740                 1.2310
 Frc consts  --      1.6110                 1.8098                 1.4342
 IR Inten    --      1.1158                 1.2438                 2.7660

                     46                     47                     48
                      A                      A                      A
 Frequencies --   1412.1526              1413.1798              1480.0566
 Red. masses --      1.2568                 1.2570                 1.0571
 Frc consts  --      1.4767                 1.4791                 1.3644
 IR Inten    --      2.1948                 1.7386                 2.2280

                     49                     50                     51
                      A                      A                      A
 Frequencies --   1480.5355              1486.0338              1492.5561
 Red. masses --      1.0638                 1.0662                 1.0509
 Frc consts  --      1.3738                 1.3872                 1.3794
 IR Inten    --      2.3689                 0.5416                 6.1626

                     52                     53                     54
                      A                      A                      A
 Frequencies --   1497.4143              1498.5730              1499.7481
 Red. masses --      1.0563                 1.0647                 1.0413
 Frc consts  --      1.3955                 1.4087                 1.3799
 IR Inten    --      1.2935                 1.5087                 5.0214

                     55                     56                     57
                      A                      A                      A
 Frequencies --   1503.2491              1512.8908              1745.0054
 Red. masses --      1.0527                 1.0884                 6.2312
 Frc consts  --      1.4016                 1.4678                11.1793
 IR Inten    --      4.3872                 3.4737                 1.3364

                     58                     59                     60
                      A                      A                      A
 Frequencies --   2999.1884              3003.0139              3008.9907
 Red. masses --      1.0662                 1.0678                 1.0684
 Frc consts  --      5.6507                 5.6737                 5.6995
 IR Inten    --      1.1537                 0.9443                 7.9915

                     61                     62                     63
                      A                      A                      A
 Frequencies --   3015.8767              3016.8861              3027.4446
 Red. masses --      1.0373                 1.0622                 1.0394
 Frc consts  --      5.5589                 5.6962                 5.6129
 IR Inten    --     42.1414                73.6232                36.2831

                     64                     65                     66
                      A                      A                      A
 Frequencies --   3028.2034              3032.2307              3042.3518
 Red. masses --      1.0440                 1.0831                 1.1011
 Frc consts  --      5.6404                 5.8676                 6.0049
 IR Inten    --     20.6972                 5.5971                 1.4802

                     67                     68                     69
                      A                      A                      A
 Frequencies --   3061.8002              3064.0484              3093.8673
 Red. masses --      1.0988                 1.1030                 1.1021
 Frc consts  --      6.0689                 6.1011                 6.2152
 IR Inten    --     21.1810                66.4515                61.2837

                     70                     71                     72
                      A                      A                      A
 Frequencies --   3095.8822              3099.1733              3100.1423
 Red. masses --      1.0979                 1.1009                 1.0964
 Frc consts  --      6.1998                 6.2301                 6.2087
 IR Inten    --     20.0643                41.1313                 3.8536

                     73                     74                     75
                      A                      A                      A
 Frequencies --   3103.8112              3110.3795              3123.5985
 Red. masses --      1.0884                 1.1015                 1.0898
 Frc consts  --      6.1776                 6.2784                 6.2648
 IR Inten    --     28.5201                35.9230                46.7393

 - Thermochemistry -
 -------------------
 Temperature   298.150 Kelvin.  Pressure   1.00000 Atm.
 Atom     1 has atomic number  6 and mass  12.00000

 Molecular mass:   126.14085 amu.
 Principal axes and moments of inertia in atomic units:
                           1         2         3
     Eigenvalues --   505.693183422.996343749.35154
           X            1.00000   0.00206  -0.00236
           Y           -0.00206   1.00000  -0.00064
           Z            0.00236   0.00065   1.00000
 This molecule is an asymmetric top.
 Rotational symmetry number  1.
 Warning -- assumption of classical behavior for rotation
           may cause significant error
 Rotational temperatures (Kelvin)      0.17128     0.02530     0.02310
 Rotational constants (GHZ):           3.56885     0.52724     0.48135
 Zero-point vibrational energy     654678.5 (Joules/Mol)
                                  156.47192 (Kcal/Mol)
 Warning -- explicit consideration of  16 degrees of freedom as
           vibrations may cause significant error
 Vibrational temperatures:     66.87    82.15   123.63   158.36   192.99
          (Kelvin)            239.51   286.00   309.55   349.34   367.35
                              426.20   434.54   542.31   631.50   703.42
                              771.24  1057.71  1130.42  1177.97  1242.95
                             1301.06  1306.14  1317.46  1407.63  1456.51
                             1468.28  1479.18  1534.79  1537.33  1550.30
                             1571.10  1627.64  1698.33  1712.10  1782.99
                             1818.95  1866.38  1889.54  1914.57  1919.46
                             1940.30  1963.00  1989.03  2009.95  2023.25
                             2031.77  2033.25  2129.47  2130.16  2138.07
                             2147.46  2154.45  2156.11  2157.80  2162.84
                             2176.71  2510.67  4315.16  4320.67  4329.27
                             4339.17  4340.63  4355.82  4356.91  4362.70
                             4377.27  4405.25  4408.48  4451.38  4454.28
                             4459.02  4460.41  4465.69  4475.14  4494.16

 Zero-point correction=                           0.249354 (Hartree/Particle)
 Thermal correction to Energy=                    0.261522
 Thermal correction to Enthalpy=                  0.262466
 Thermal correction to Gibbs Free Energy=         0.210867
 Sum of electronic and zero-point Energies=           -353.574990
 Sum of electronic and thermal Energies=              -353.562822
 Sum of electronic and thermal Enthalpies=            -353.561878
 Sum of electronic and thermal Free Energies=         -353.613477

                     E (Thermal)             CV                S
                      KCal/Mol        Cal/Mol-Kelvin    Cal/Mol-Kelvin
 Total                  164.107             43.332            108.599
 Electronic               0.000              0.000              0.000
 Translational            0.889              2.981             40.410
 Rotational               0.889              2.981             30.252
 Vibrational            162.330             37.370             37.937
 Vibration     1          0.595              1.979              4.962
 Vibration     2          0.596              1.975              4.555
 Vibration     3          0.601              1.959              3.751
 Vibration     4          0.606              1.941              3.268
 Vibration     5          0.613              1.919              2.886
 Vibration     6          0.624              1.884              2.475
 Vibration     7          0.637              1.842              2.144
 Vibration     8          0.645              1.818              2.000
 Vibration     9          0.659              1.775              1.782
 Vibration    10          0.666              1.754              1.694
 Vibration    11          0.690              1.681              1.438
 Vibration    12          0.694              1.670              1.406
 Vibration    13          0.747              1.519              1.051
 Vibration    14          0.799              1.385              0.830
 Vibration    15          0.845              1.275              0.686
 Vibration    16          0.891              1.170              0.574

 Optimization completed.
    -- Stationary point found.
 Normal termination of Gaussian 16 at Tue Jun  1 20:05:56 2021.
