 Gaussian 16, Revision A.03,
 Gaussian 16:  ES64L-G16RevA.03 25-Dec-2016

 -----------------------------
 # opt freq b3lyp/6-31g(2df,p)
 -----------------------------

 -------------------
 Title Card Required
 -------------------
 Symbolic Z-matrix:
 Charge =  0 Multiplicity = 1

 SCF Done:  E(RB3LYP) =  -510.142959432     A.U. after   14 cycles
 SCF Done:  E(RB3LYP) =  -510.150020850     A.U. after   13 cycles
 SCF Done:  E(RB3LYP) =  -510.152224200     A.U. after   13 cycles
 SCF Done:  E(RB3LYP) =  -510.153419231     A.U. after   13 cycles
 SCF Done:  E(RB3LYP) =  -510.154330654     A.U. after   13 cycles
 SCF Done:  E(RB3LYP) =  -510.155348738     A.U. after   15 cycles
 SCF Done:  E(RB3LYP) =  -510.155810110     A.U. after   13 cycles
 SCF Done:  E(RB3LYP) =  -510.155825804     A.U. after   12 cycles
 SCF Done:  E(RB3LYP) =  -510.156457149     A.U. after   13 cycles
 SCF Done:  E(RB3LYP) =  -510.155478342     A.U. after   15 cycles
 SCF Done:  E(RB3LYP) =  -510.166063570     A.U. after   10 cycles
 SCF Done:  E(RB3LYP) =  -510.166067440     A.U. after    8 cycles
 SCF Done:  E(RB3LYP) =  -510.166067941     A.U. after    8 cycles
 SCF Done:  E(RB3LYP) =  -510.166068064     A.U. after    7 cycles
 SCF Done:  E(RB3LYP) =  -510.166067959     A.U. after    8 cycles
 SCF Done:  E(RB3LYP) =  -510.166069436     A.U. after    9 cycles
 SCF Done:  E(RB3LYP) =  -510.166069614     A.U. after    8 cycles
 SCF Done:  E(RB3LYP) =  -510.166069694     A.U. after    8 cycles
 SCF Done:  E(RB3LYP) =  -510.166069713     A.U. after    7 cycles
 Optimization completed.
    -- Stationary point found.
 Normal termination of Gaussian 16 at Tue Jun  1 00:58:54 2021.

 ----------------------------------------------------------------------
 #N Geom=AllCheck Guess=TCheck SCRF=Check GenChk RB3LYP/6-31G(2df,p) Fr
 eq
 ----------------------------------------------------------------------

 Structure from the checkpoint file:  "CCdNCNCNpNpCCtN.chk"
 -------------------
 Title Card Required
 -------------------
 Charge =  0 Multiplicity = 1

                         Standard orientation:
 ---------------------------------------------------------------------
 Center     Atomic      Atomic             Coordinates (Angstroms)
 Number     Number       Type             X           Y           Z
 ---------------------------------------------------------------------
      1          6           0       -4.859432    0.918212    0.212993
      2          6           0       -3.425538    0.788591   -0.197734
      3          7           0       -2.836919   -0.330233   -0.264105
      4          6           0       -1.453310   -0.348445   -0.691196
      5          7           0       -0.681744   -1.107030    0.289963
      6          6           0        0.675350   -1.403884   -0.103864
      7          7           0        1.503503   -0.210866    0.080414
      8          7           0        1.582537    0.052457    1.521329
      9          6           0        2.860558   -0.464032   -0.389106
     10          6           0        3.663011    0.764588   -0.361314
     11          7           0        4.297207    1.729466   -0.332979
     12          1           0       -5.445516    1.384959   -0.587950
     13          1           0       -4.948125    1.572984    1.088131
     14          1           0       -5.281317   -0.060639    0.446357
     15          1           0       -2.906047    1.729605   -0.444163
     16          1           0       -1.009127    0.653499   -0.787942
     17          1           0       -1.418978   -0.825068   -1.689332
     18          1           0       -1.189240   -1.950717    0.529654
     19          1           0        0.774650   -1.693373   -1.164708
     20          1           0        1.033467   -2.240605    0.521808
     21          1           0        0.609693   -0.045026    1.819149
     22          1           0        1.772211    1.052335    1.593310
     23          1           0        2.813897   -0.819241   -1.424522
     24          1           0        3.378514   -1.225444    0.219173
 ---------------------------------------------------------------------

 SCF Done:  E(RB3LYP) =  -510.166069713     A.U. after    1 cycles

 The electronic state is 1-A.
 Alpha  occ. eigenvalues --  -14.36262 -14.33765 -14.33057 -14.32872 -14.32693
 Alpha  occ. eigenvalues --  -10.25428 -10.24685 -10.23790 -10.23659 -10.21836
 Alpha  occ. eigenvalues --  -10.19233  -0.98967  -0.94350  -0.90000  -0.89114
 Alpha  occ. eigenvalues --   -0.81404  -0.75897  -0.72867  -0.66929  -0.61270
 Alpha  occ. eigenvalues --   -0.57138  -0.53150  -0.52120  -0.51985  -0.49259
 Alpha  occ. eigenvalues --   -0.46687  -0.46054  -0.44546  -0.42718  -0.41914
 Alpha  occ. eigenvalues --   -0.41190  -0.40957  -0.39068  -0.37198  -0.35523
 Alpha  occ. eigenvalues --   -0.33142  -0.32717  -0.31761  -0.30562  -0.26233
 Alpha  occ. eigenvalues --   -0.24701  -0.21103
 Alpha virt. eigenvalues --   -0.00702   0.02748   0.04368   0.08163   0.09254
 Alpha virt. eigenvalues --    0.10156   0.11169   0.11760   0.12397   0.14391
 Alpha virt. eigenvalues --    0.15414   0.15649   0.16054   0.16553   0.17451

 Mulliken charges:
               1
     1  C   -0.435954
     2  C    0.050540
     3  N   -0.160183
     4  C   -0.090097
     5  N   -0.295886
     6  C   -0.100206
     7  N   -0.098374
     8  N   -0.486189
     9  C   -0.243921
    10  C    0.273167
    11  N   -0.308273
    12  H    0.135708
    13  H    0.135950
    14  H    0.140361
    15  H    0.085184
    16  H    0.109712
    17  H    0.089654
    18  H    0.232852
    19  H    0.088717
    20  H    0.094087
    21  H    0.248791
    22  H    0.251981
    23  H    0.146492
    24  H    0.135886
 Sum of Mulliken charges =  -0.00000

 Dipole moment (field-independent basis, Debye):
    X=             -3.8849    Y=             -1.9460    Z=             -0.7536  Tot=              4.4099
 Quadrupole moment (field-independent basis, Debye-Ang):
   XX=            -77.5247   YY=            -66.2639   ZZ=            -66.0808
   XY=            -16.8708   XZ=             -1.8044   YZ=              3.1613

  Exact polarizability: 129.425  -0.995  98.207  -5.638   3.148  77.555
 Approx polarizability: 150.409   4.140 159.264  -6.902   5.254 118.389

                      1                      2                      3
                      A                      A                      A
 Frequencies --     25.8749                49.4773                59.5158
 Red. masses --      4.0151                 4.6166                 2.4738
 Frc consts  --      0.0016                 0.0067                 0.0052
 IR Inten    --      2.9769                 0.7883                 8.0037

                      4                      5                      6
                      A                      A                      A
 Frequencies --    102.0415               107.0393               138.6377
 Red. masses --      2.9043                 3.3973                 3.5127
 Frc consts  --      0.0178                 0.0229                 0.0398
 IR Inten    --      1.6770                 3.9599                 2.2095

                      7                      8                      9
                      A                      A                      A
 Frequencies --    179.2189               210.8344               277.8623
 Red. masses --      2.0260                 1.6343                 1.6594
 Frc consts  --      0.0383                 0.0428                 0.0755
 IR Inten    --      0.6426                 1.6113                20.9341

                     10                     11                     12
                      A                      A                      A
 Frequencies --    292.3444               304.9641               309.1621
 Red. masses --      3.3145                 2.4970                 1.8812
 Frc consts  --      0.1669                 0.1368                 0.1059
 IR Inten    --      2.3379                 6.7651                30.7386

                     13                     14                     15
                      A                      A                      A
 Frequencies --    376.5503               394.8941               424.0598
 Red. masses --      3.4253                 3.8194                 3.7549
 Frc consts  --      0.2862                 0.3509                 0.3978
 IR Inten    --      8.8565                 2.2398                 9.1811

                     16                     17                     18
                      A                      A                      A
 Frequencies --    440.9110               503.1000               579.0362
 Red. masses --      2.1378                 4.3370                 3.2887
 Frc consts  --      0.2449                 0.6468                 0.6497
 IR Inten    --     17.2171                 2.8032                 3.8604

                     19                     20                     21
                      A                      A                      A
 Frequencies --    642.5638               763.2072               850.8598
 Red. masses --      2.6369                 1.6876                 4.7999
 Frc consts  --      0.6415                 0.5792                 2.0474
 IR Inten    --     32.0350                64.0562                16.1151

                     22                     23                     24
                      A                      A                      A
 Frequencies --    874.5620               909.3421               940.1735
 Red. masses --      1.2337                 2.0005                 3.8539
 Frc consts  --      0.5560                 0.9746                 2.0071
 IR Inten    --      4.3162                16.8830                 2.2063

                     25                     26                     27
                      A                      A                      A
 Frequencies --    982.1227               989.9401              1055.0542
 Red. masses --      2.4509                 1.8346                 2.5556
 Frc consts  --      1.3929                 1.0593                 1.6761
 IR Inten    --      6.9150                 7.2597                59.0540

                     28                     29                     30
                      A                      A                      A
 Frequencies --   1075.7916              1077.8540              1103.4067
 Red. masses --      2.6122                 2.3737                 1.6879
 Frc consts  --      1.7812                 1.6248                 1.2108
 IR Inten    --     12.5215                24.5914                 1.9413

                     31                     32                     33
                      A                      A                      A
 Frequencies --   1116.9955              1147.6833              1160.6673
 Red. masses --      2.0125                 1.9588                 2.6969
 Frc consts  --      1.4794                 1.5202                 2.1406
 IR Inten    --      9.3337                 4.7885                88.8997

                     34                     35                     36
                      A                      A                      A
 Frequencies --   1189.2848              1207.2513              1242.1893
 Red. masses --      2.6007                 1.6505                 1.1023
 Frc consts  --      2.1672                 1.4173                 1.0021
 IR Inten    --     32.7785                71.5878                18.1165

                     37                     38                     39
                      A                      A                      A
 Frequencies --   1259.0175              1318.9225              1354.0571
 Red. masses --      1.1403                 1.1889                 1.2482
 Frc consts  --      1.0649                 1.2186                 1.3483
 IR Inten    --      9.5825                 2.4177                34.5034

                     40                     41                     42
                      A                      A                      A
 Frequencies --   1376.5808              1396.0465              1413.1040
 Red. masses --      1.1956                 1.2656                 1.4079
 Frc consts  --      1.3348                 1.4533                 1.6564
 IR Inten    --     18.6485                17.2424                20.4127

                     43                     44                     45
                      A                      A                      A
 Frequencies --   1420.2801              1429.7783              1452.6512
 Red. masses --      1.4895                 1.3638                 1.0910
 Frc consts  --      1.7703                 1.6426                 1.3564
 IR Inten    --     16.8930                55.3935                 9.0918

                     46                     47                     48
                      A                      A                      A
 Frequencies --   1472.7159              1478.0427              1485.5453
 Red. masses --      1.0541                 1.0454                 1.3129
 Frc consts  --      1.3470                 1.3456                 1.7070
 IR Inten    --     13.1716                 6.5255                26.5359

                     49                     50                     51
                      A                      A                      A
 Frequencies --   1491.0194              1521.2787              1657.1466
 Red. masses --      1.0976                 1.0965                 1.0655
 Frc consts  --      1.4377                 1.4951                 1.7239
 IR Inten    --      2.6997                 2.3611                34.3855

                     52                     53                     54
                      A                      A                      A
 Frequencies --   1767.9025              2367.2074              2917.5279
 Red. masses --      8.1600                12.6208                 1.0676
 Frc consts  --     15.0265                41.6687                 5.3543
 IR Inten    --    106.7758                 3.4939                55.9827

                     55                     56                     57
                      A                      A                      A
 Frequencies --   2932.4841              2962.1946              2972.1344
 Red. masses --      1.0539                 1.0678                 1.1060
 Frc consts  --      5.3397                 5.5203                 5.7562
 IR Inten    --     73.3386                45.7416                45.4518

                     58                     59                     60
                      A                      A                      A
 Frequencies --   2978.0067              3001.7274              3030.1719
 Red. masses --      1.0848                 1.0903                 1.0385
 Frc consts  --      5.6683                 5.7882                 5.6180
 IR Inten    --     41.7064                43.3547                12.5046

                     61                     62                     63
                      A                      A                      A
 Frequencies --   3071.2583              3081.8663              3144.5339
 Red. masses --      1.0889                 1.0981                 1.1004
 Frc consts  --      6.0518                 6.1452                 6.4106
 IR Inten    --      6.4639                11.7800                 9.9098

                     64                     65                     66
                      A                      A                      A
 Frequencies --   3425.5523              3501.4820              3554.7393
 Red. masses --      1.0503                 1.0909                 1.0743
 Frc consts  --      7.2615                 7.8802                 7.9981
 IR Inten    --     17.8897                14.3717                 7.6257

 - Thermochemistry -
 -------------------
 Temperature   298.150 Kelvin.  Pressure   1.00000 Atm.
 Atom     1 has atomic number  6 and mass  12.00000

 Molecular mass:   155.11710 amu.
 Principal axes and moments of inertia in atomic units:
                           1         2         3
     Eigenvalues --   708.517914786.757805054.73798
           X            0.99976  -0.02193  -0.00121
           Y            0.02196   0.99883   0.04303
           Z            0.00027  -0.04304   0.99907
 This molecule is an asymmetric top.
 Rotational symmetry number  1.
 Warning -- assumption of classical behavior for rotation
           may cause significant error
 Rotational temperatures (Kelvin)      0.12225     0.01809     0.01714
 Rotational constants (GHZ):           2.54721     0.37703     0.35704
 Zero-point vibrational energy     534368.6 (Joules/Mol)
                                  127.71715 (Kcal/Mol)
 Warning -- explicit consideration of  18 degrees of freedom as
           vibrations may cause significant error
 Vibrational temperatures:     37.23    71.19    85.63   146.81   154.01
          (Kelvin)            199.47   257.86   303.34   399.78   420.62
                              438.78   444.82   541.77   568.16   610.13
                              634.37   723.85   833.10   924.51  1098.08
                             1224.20  1258.30  1308.34  1352.70  1413.06
                             1424.30  1517.99  1547.82  1550.79  1587.56
                             1607.11  1651.26  1669.94  1711.12  1736.97
                             1787.23  1811.45  1897.64  1948.19  1980.59
                             2008.60  2033.14  2043.47  2057.13  2090.04
                             2118.91  2126.57  2137.37  2145.24  2188.78
                             2384.26  2543.62  3405.88  4197.67  4219.19
                             4261.94  4276.24  4284.69  4318.82  4359.74
                             4418.86  4434.12  4524.28  4928.61  5037.85
                             5114.48

 Zero-point correction=                           0.203530 (Hartree/Particle)
 Thermal correction to Energy=                    0.216307
 Thermal correction to Enthalpy=                  0.217252
 Thermal correction to Gibbs Free Energy=         0.162874
 Sum of electronic and zero-point Energies=           -509.962539
 Sum of electronic and thermal Energies=              -509.949762
 Sum of electronic and thermal Enthalpies=            -509.948818
 Sum of electronic and thermal Free Energies=         -510.003196

                     E (Thermal)             CV                S
                      KCal/Mol        Cal/Mol-Kelvin    Cal/Mol-Kelvin
 Total                  135.735             44.753            114.447
 Electronic               0.000              0.000              0.000
 Translational            0.889              2.981             41.027
 Rotational               0.889              2.981             31.217
 Vibrational            133.958             38.792             42.204
 Vibration     1          0.593              1.985              6.123
 Vibration     2          0.595              1.978              4.838
 Vibration     3          0.597              1.974              4.473
 Vibration     4          0.604              1.948              3.415
 Vibration     5          0.606              1.944              3.322
 Vibration     6          0.614              1.915              2.823
 Vibration     7          0.629              1.868              2.337
 Vibration     8          0.643              1.824              2.036
 Vibration     9          0.679              1.714              1.547
 Vibration    10          0.688              1.688              1.460
 Vibration    11          0.696              1.664              1.390
 Vibration    12          0.699              1.656              1.367
 Vibration    13          0.747              1.520              1.053
 Vibration    14          0.762              1.481              0.982
 Vibration    15          0.786              1.418              0.878
 Vibration    16          0.801              1.381              0.824
 Vibration    17          0.858              1.243              0.650
 Vibration    18          0.936              1.077              0.487

 Optimization completed.
    -- Stationary point found.
 Normal termination of Gaussian 16 at Tue Jun  1 01:42:30 2021.
