 Gaussian 16, Revision A.03,
 Gaussian 16:  ES64L-G16RevA.03 25-Dec-2016

 -----------------------------
 # opt freq b3lyp/6-31g(2df,p)
 -----------------------------

 -------------------
 Title Card Required
 -------------------
 Symbolic Z-matrix:
 Charge =  0 Multiplicity = 1

 SCF Done:  E(RB3LYP) =  -469.576750617     A.U. after   16 cycles
 SCF Done:  E(RB3LYP) =  -469.609021282     A.U. after   13 cycles
 SCF Done:  E(RB3LYP) =  -469.609748754     A.U. after   12 cycles
 SCF Done:  E(RB3LYP) =  -469.611154612     A.U. after   12 cycles
 SCF Done:  E(RB3LYP) =  -469.611202236     A.U. after   10 cycles
 SCF Done:  E(RB3LYP) =  -469.611206813     A.U. after    9 cycles
 SCF Done:  E(RB3LYP) =  -469.611208490     A.U. after    8 cycles
 SCF Done:  E(RB3LYP) =  -469.611208568     A.U. after    8 cycles
 Optimization completed.
    -- Stationary point found.
 Normal termination of Gaussian 16 at Tue Jun  1 12:37:54 2021.

 ----------------------------------------------------------------------
 #N Geom=AllCheck Guess=TCheck SCRF=Check GenChk RB3LYP/6-31G(2df,p) Fr
 eq
 ----------------------------------------------------------------------

 Structure from the checkpoint file:  "CCdNNdNNpCpCCtN.chk"
 -------------------
 Title Card Required
 -------------------
 Charge =  0 Multiplicity = 1

                         Standard orientation:
 ---------------------------------------------------------------------
 Center     Atomic      Atomic             Coordinates (Angstroms)
 Number     Number       Type             X           Y           Z
 ---------------------------------------------------------------------
      1          6           0        4.678500   -0.228401   -0.000129
      2          6           0        3.287780    0.335594   -0.000076
      3          7           0        2.269117   -0.435188   -0.000026
      4          7           0        1.075794    0.296220    0.000003
      5          7           0        0.110961   -0.511775    0.000046
      6          7           0       -1.101269    0.041219    0.000139
      7          6           0       -1.373149    1.474430    0.000194
      8          6           0       -2.154757   -0.966185    0.000261
      9          6           0       -3.495984   -0.382475    0.000067
     10          7           0       -4.568777    0.044452   -0.000562
     11          1           0        5.426235    0.567603   -0.000175
     12          1           0        4.842024   -0.858444   -0.880555
     13          1           0        4.842102   -0.858417    0.880302
     14          1           0        3.155595    1.422700   -0.000087
     15          1           0       -0.412463    1.984640    0.000106
     16          1           0       -1.942004    1.763825    0.889744
     17          1           0       -1.942186    1.763857   -0.889229
     18          1           0       -2.062291   -1.613844    0.881652
     19          1           0       -2.062131   -1.614194   -0.880857
 ---------------------------------------------------------------------

 SCF Done:  E(RB3LYP) =  -469.611208568     A.U. after    1 cycles

 The electronic state is 1-A.
 Alpha  occ. eigenvalues --  -14.41040 -14.40418 -14.37552 -14.34775 -14.34515
 Alpha  occ. eigenvalues --  -10.28072 -10.23935 -10.22775 -10.22562 -10.18983
 Alpha  occ. eigenvalues --   -1.08868  -0.97881  -0.92057  -0.88139  -0.77906
 Alpha  occ. eigenvalues --   -0.75912  -0.71800  -0.61138  -0.55941  -0.54064
 Alpha  occ. eigenvalues --   -0.51928  -0.51582  -0.49596  -0.44918  -0.44254
 Alpha  occ. eigenvalues --   -0.43196  -0.41361  -0.41136  -0.39837  -0.38500
 Alpha  occ. eigenvalues --   -0.37435  -0.35089  -0.34859  -0.32063  -0.30022
 Alpha  occ. eigenvalues --   -0.23451  -0.22651
 Alpha virt. eigenvalues --   -0.04187   0.00604   0.01973   0.03064   0.08441
 Alpha virt. eigenvalues --    0.10971   0.11774   0.12336   0.13648   0.14588
 Alpha virt. eigenvalues --    0.15001   0.17265   0.17757   0.18067   0.19058

 Mulliken charges:
               1
     1  C   -0.438375
     2  C    0.057766
     3  N   -0.112904
     4  N   -0.182835
     5  N   -0.034842
     6  N    0.000914
     7  C   -0.345967
     8  C   -0.230845
     9  C    0.240094
    10  N   -0.293663
    11  H    0.125393
    12  H    0.149384
    13  H    0.149384
    14  H    0.100220
    15  H    0.171245
    16  H    0.148035
    17  H    0.148056
    18  H    0.174452
    19  H    0.174488
 Sum of Mulliken charges =  -0.00000

 Dipole moment (field-independent basis, Debye):
    X=              2.3832    Y=              0.4896    Z=              0.0012  Tot=              2.4329
 Quadrupole moment (field-independent basis, Debye-Ang):
   XX=            -67.8864   YY=            -56.0789   ZZ=            -57.2135
   XY=              5.7342   XZ=             -0.0058   YZ=              0.0001

  Exact polarizability: 177.404  -0.776  73.846   0.001  -0.002  53.990
 Approx polarizability: 239.858   4.411 114.071   0.007  -0.007  83.133

 ******    3 imaginary frequencies (negative Signs) ******

                      1                      2                      3
                      A                      A                      A
 Frequencies --   -197.9823              -151.2987               -84.9470
 Red. masses --      1.1377                 1.4688                 1.8464
 Frc consts  --      0.0263                 0.0198                 0.0079
 IR Inten    --      3.4693                 3.7623                12.6936

                      4                      5                      6
                      A                      A                      A
 Frequencies --     49.2618                92.1778               101.3617
 Red. masses --      5.1281                 5.2749                 2.4542
 Frc consts  --      0.0073                 0.0264                 0.0149
 IR Inten    --      1.5233                 0.4558                 3.9463

                      7                      8                      9
                      A                      A                      A
 Frequencies --    160.5433               174.3550               291.8247
 Red. masses --      2.6417                 5.2809                 4.1593
 Frc consts  --      0.0401                 0.0946                 0.2087
 IR Inten    --      0.1082                15.5989                 1.1979

                     10                     11                     12
                      A                      A                      A
 Frequencies --    312.7982               330.1079               367.4606
 Red. masses --      3.8720                 6.1365                 4.4687
 Frc consts  --      0.2232                 0.3940                 0.3555
 IR Inten    --      0.9200                 0.1578                 1.7667

                     13                     14                     15
                      A                      A                      A
 Frequencies --    409.1138               426.6198               520.1425
 Red. masses --      7.0419                 5.0266                 4.6027
 Frc consts  --      0.6944                 0.5390                 0.7337
 IR Inten    --      3.2830                 6.9447                12.6408

                     16                     17                     18
                      A                      A                      A
 Frequencies --    596.9208               708.4750               840.6762
 Red. masses --      7.0210                 4.1503                 4.5186
 Frc consts  --      1.4740                 1.2274                 1.8815
 IR Inten    --      5.6364                 1.5799                 4.7006

                     19                     20                     21
                      A                      A                      A
 Frequencies --    891.3984               966.9384               988.8277
 Red. masses --      1.2475                 3.4167                 1.9111
 Frc consts  --      0.5840                 1.8822                 1.1009
 IR Inten    --      9.4211                 0.2163                14.0544

                     22                     23                     24
                      A                      A                      A
 Frequencies --    992.7390              1074.4875              1083.6340
 Red. masses --      1.7068                 2.9277                 1.5849
 Frc consts  --      0.9910                 1.9915                 1.0965
 IR Inten    --      0.1798                32.4020                 0.2649

                     25                     26                     27
                      A                      A                      A
 Frequencies --   1090.4759              1132.8145              1136.3088
 Red. masses --      2.9736                 1.2667                 2.3579
 Frc consts  --      2.0834                 0.9577                 1.7938
 IR Inten    --    241.0187                 0.4787                 8.7035

                     28                     29                     30
                      A                      A                      A
 Frequencies --   1239.8907              1290.6292              1329.1072
 Red. masses --      1.0688                 5.3319                 2.6968
 Frc consts  --      0.9681                 5.2328                 2.8068
 IR Inten    --      0.2852                61.9096                15.0887

                     31                     32                     33
                      A                      A                      A
 Frequencies --   1362.1383              1383.0719              1407.1248
 Red. masses --      1.4239                 1.7270                 1.2877
 Frc consts  --      1.5566                 1.9464                 1.5022
 IR Inten    --     20.4103               245.6392                 7.6013

                     34                     35                     36
                      A                      A                      A
 Frequencies --   1437.5230              1479.2730              1480.1081
 Red. masses --      1.2167                 1.0761                 1.0447
 Frc consts  --      1.4813                 1.3874                 1.3484
 IR Inten    --      3.8551                 8.5693                 5.5108

                     37                     38                     39
                      A                      A                      A
 Frequencies --   1487.0652              1492.4546              1500.7902
 Red. masses --      1.0794                 1.0432                 1.1303
 Frc consts  --      1.4064                 1.3690                 1.5000
 IR Inten    --     35.3857                 7.7575                 9.2338

                     40                     41                     42
                      A                      A                      A
 Frequencies --   1544.4237              1698.6490              2372.7592
 Red. masses --      5.7987                 8.2542                12.6218
 Frc consts  --      8.1492                14.0323                41.8676
 IR Inten    --    143.7726                74.0902                 2.2316

                     43                     44                     45
                      A                      A                      A
 Frequencies --   3020.8999              3037.0907              3041.6441
 Red. masses --      1.0567                 1.0371                 1.0365
 Frc consts  --      5.6817                 5.6362                 5.6498
 IR Inten    --     34.7407                40.4827                13.7787

                     46                     47                     48
                      A                      A                      A
 Frequencies --   3048.8111              3065.6441              3094.5637
 Red. masses --      1.1036                 1.0866                 1.1044
 Frc consts  --      6.0442                 6.0169                 6.2312
 IR Inten    --      4.0279                22.7143                13.9842

                     49                     50                     51
                      A                      A                      A
 Frequencies --   3100.2584              3131.0362              3179.5676
 Red. masses --      1.0994                 1.1012                 1.0969
 Frc consts  --      6.2260                 6.3604                 6.5338
 IR Inten    --      8.2494                22.0494                 1.2884

 - Thermochemistry -
 -------------------
 Temperature   298.150 Kelvin.  Pressure   1.00000 Atm.
 Atom     1 has atomic number  6 and mass  12.00000

 Molecular mass:   139.08580 amu.
 Principal axes and moments of inertia in atomic units:
                           1         2         3
     Eigenvalues --   259.393344008.482694234.14678
           X            1.00000  -0.00149  -0.00000
           Y            0.00149   1.00000   0.00000
           Z            0.00000  -0.00000   1.00000
 This molecule is an asymmetric top.
 Rotational symmetry number  1.
 Rotational temperatures (Kelvin)      0.33391     0.02161     0.02046
 Rotational constants (GHZ):           6.95755     0.45023     0.42623
    3 imaginary frequencies ignored.
 Zero-point vibrational energy     388570.9 (Joules/Mol)
                                   92.87068 (Kcal/Mol)
 Warning -- explicit consideration of  13 degrees of freedom as
           vibrations may cause significant error
 Vibrational temperatures:     70.88   132.62   145.84   230.99   250.86
          (Kelvin)            419.87   450.05   474.95   528.69   588.62
                              613.81   748.37   858.84  1019.34  1209.55
                             1282.52  1391.21  1422.70  1428.33  1545.95
                             1559.11  1568.95  1629.87  1634.89  1783.93
                             1856.93  1912.29  1959.81  1989.93  2024.54
                             2068.28  2128.34  2129.55  2139.56  2147.31
                             2159.30  2222.08  2443.98  3413.87  4346.40
                             4369.70  4376.25  4386.56  4410.78  4452.39
                             4460.58  4504.86  4574.69

 Zero-point correction=                           0.147999 (Hartree/Particle)
 Thermal correction to Energy=                    0.157467
 Thermal correction to Enthalpy=                  0.158411
 Thermal correction to Gibbs Free Energy=         0.112381
 Sum of electronic and zero-point Energies=           -469.463210
 Sum of electronic and thermal Energies=              -469.453742
 Sum of electronic and thermal Enthalpies=            -469.452798
 Sum of electronic and thermal Free Energies=         -469.498827

                     E (Thermal)             CV                S
                      KCal/Mol        Cal/Mol-Kelvin    Cal/Mol-Kelvin
 Total                   98.812             33.087             96.877
 Electronic               0.000              0.000              0.000
 Translational            0.889              2.981             40.701
 Rotational               0.889              2.981             29.866
 Vibrational             97.034             27.126             26.309
 Vibration     1          0.595              1.978              4.847
 Vibration     2          0.602              1.955              3.613
 Vibration     3          0.604              1.948              3.428
 Vibration     4          0.622              1.891              2.543
 Vibration     5          0.627              1.874              2.388
 Vibration     6          0.687              1.689              1.463
 Vibration     7          0.701              1.649              1.347
 Vibration     8          0.713              1.615              1.260
 Vibration     9          0.740              1.539              1.090
 Vibration    10          0.773              1.450              0.930
 Vibration    11          0.788              1.412              0.870
 Vibration    12          0.875              1.205              0.610
 Vibration    13          0.955              1.038              0.455

 Optimization completed.
    -- Stationary point found.
 Normal termination of Gaussian 16 at Tue Jun  1 13:03:54 2021.
