 Gaussian 16, Revision A.03,
 Gaussian 16:  ES64L-G16RevA.03 25-Dec-2016

 -----------------------------
 # opt freq b3lyp/6-31g(2df,p)
 -----------------------------

 -------------------
 Title Card Required
 -------------------
 Symbolic Z-matrix:
 Charge =  0 Multiplicity = 1

 SCF Done:  E(RB3LYP) =  -441.202372231     A.U. after   13 cycles
 SCF Done:  E(RB3LYP) =  -441.209665772     A.U. after   12 cycles
 SCF Done:  E(RB3LYP) =  -441.213059024     A.U. after   12 cycles
 SCF Done:  E(RB3LYP) =  -441.215926849     A.U. after   14 cycles
 SCF Done:  E(RB3LYP) =  -441.216728241     A.U. after   11 cycles
 SCF Done:  E(RB3LYP) =  -441.217063520     A.U. after   10 cycles
 SCF Done:  E(RB3LYP) =  -441.217131336     A.U. after   10 cycles
 SCF Done:  E(RB3LYP) =  -441.217159801     A.U. after   10 cycles
 SCF Done:  E(RB3LYP) =  -441.217187398     A.U. after   10 cycles
 SCF Done:  E(RB3LYP) =  -441.217189189     A.U. after   10 cycles
 SCF Done:  E(RB3LYP) =  -441.218377481     A.U. after   11 cycles
 SCF Done:  E(RB3LYP) =  -441.218882835     A.U. after   11 cycles
 SCF Done:  E(RB3LYP) =  -441.219501372     A.U. after   11 cycles
 SCF Done:  E(RB3LYP) =  -441.219490820     A.U. after   11 cycles
 SCF Done:  E(RB3LYP) =  -441.220046901     A.U. after   10 cycles
 SCF Done:  E(RB3LYP) =  -441.220056691     A.U. after    9 cycles
 SCF Done:  E(RB3LYP) =  -441.220060071     A.U. after    9 cycles
 SCF Done:  E(RB3LYP) =  -441.220060419     A.U. after    7 cycles
 SCF Done:  E(RB3LYP) =  -441.220060475     A.U. after    7 cycles
 Optimization completed.
    -- Stationary point found.
 Normal termination of Gaussian 16 at Tue Jun  1 21:20:23 2021.

 ----------------------------------------------------------------------
 #N Geom=AllCheck Guess=TCheck SCRF=Check GenChk RB3LYP/6-31G(2df,p) Fr
 eq
 ----------------------------------------------------------------------

 Structure from the checkpoint file:  "CCdNNCNpCpCCC.chk"
 -------------------
 Title Card Required
 -------------------
 Charge =  0 Multiplicity = 1

                         Standard orientation:
 ---------------------------------------------------------------------
 Center     Atomic      Atomic             Coordinates (Angstroms)
 Number     Number       Type             X           Y           Z
 ---------------------------------------------------------------------
      1          6           0       -4.990395   -0.418341    0.104385
      2          6           0       -3.620013   -0.262014   -0.476045
      3          7           0       -2.606662   -0.050349    0.268676
      4          7           0       -1.392532    0.163823   -0.318879
      5          6           0       -0.254521   -0.224061    0.501309
      6          7           0        0.955355    0.336844   -0.070626
      7          6           0        1.010768    1.784680    0.099127
      8          6           0        2.163570   -0.343042    0.386854
      9          6           0        3.393327   -0.055891   -0.480471
     10          6           0        4.602335   -0.896381   -0.059771
     11          1           0       -5.431648   -1.383593   -0.173939
     12          1           0       -5.670609    0.358080   -0.268487
     13          1           0       -4.946112   -0.350996    1.193325
     14          1           0       -3.519544   -0.323669   -1.569559
     15          1           0       -1.307215   -0.170265   -1.279248
     16          1           0       -0.129511   -1.316889    0.550342
     17          1           0       -0.477484    0.127972    1.523210
     18          1           0        0.050471    2.210763   -0.196676
     19          1           0        1.787437    2.218341   -0.535407
     20          1           0        1.215713    2.079244    1.146029
     21          1           0        1.966932   -1.421805    0.360843
     22          1           0        2.398463   -0.094273    1.441903
     23          1           0        3.657323    1.005994   -0.422719
     24          1           0        3.134523   -0.257126   -1.526651
     25          1           0        4.878707   -0.702214    0.982610
     26          1           0        5.475036   -0.673219   -0.680665
     27          1           0        4.393971   -1.968267   -0.151445
 ---------------------------------------------------------------------

 SCF Done:  E(RB3LYP) =  -441.220060475     A.U. after    1 cycles

 The electronic state is 1-A.
 Alpha  occ. eigenvalues --  -14.34824 -14.34550 -14.31722 -10.22704 -10.20444
 Alpha  occ. eigenvalues --  -10.20153 -10.19035 -10.17812 -10.17747 -10.17372
 Alpha  occ. eigenvalues --   -0.99041  -0.91847  -0.81922  -0.77172  -0.71816
 Alpha  occ. eigenvalues --   -0.69253  -0.66377  -0.60288  -0.58475  -0.56558
 Alpha  occ. eigenvalues --   -0.50901  -0.48745  -0.47274  -0.46778  -0.43172
 Alpha  occ. eigenvalues --   -0.42522  -0.41574  -0.39731  -0.39288  -0.38905
 Alpha  occ. eigenvalues --   -0.37502  -0.37446  -0.36490  -0.34479  -0.34049
 Alpha  occ. eigenvalues --   -0.33017  -0.32486  -0.26462  -0.21364  -0.20831
 Alpha virt. eigenvalues --    0.02059   0.08941   0.10308   0.10748   0.12038
 Alpha virt. eigenvalues --    0.12345   0.14056   0.15255   0.16039   0.16362
 Alpha virt. eigenvalues --    0.16608   0.17235   0.17391   0.17568   0.17817

 Mulliken charges:
               1
     1  C   -0.429015
     2  C    0.020390
     3  N   -0.100053
     4  N   -0.251359
     5  C   -0.068169
     6  N   -0.074438
     7  C   -0.330715
     8  C   -0.113998
     9  C   -0.180555
    10  C   -0.379046
    11  H    0.122513
    12  H    0.124889
    13  H    0.135613
    14  H    0.066010
    15  H    0.214059
    16  H    0.087394
    17  H    0.099504
    18  H    0.136768
    19  H    0.116933
    20  H    0.089197
    21  H    0.094487
    22  H    0.074218
    23  H    0.099858
    24  H    0.101919
    25  H    0.115952
    26  H    0.113755
    27  H    0.113888
 Sum of Mulliken charges =  -0.00000

 Dipole moment (field-independent basis, Debye):
    X=              0.3631    Y=             -0.6705    Z=             -0.9316  Tot=              1.2039
 Quadrupole moment (field-independent basis, Debye-Ang):
   XX=            -59.5852   YY=            -63.5863   ZZ=            -63.4912
   XY=              1.7671   XZ=              3.7504   YZ=              0.6118

  Exact polarizability: 153.230   3.205  84.695   3.475   0.712  86.262
 Approx polarizability: 174.558   7.929 123.687   8.459   2.557 134.446

                      1                      2                      3
                      A                      A                      A
 Frequencies --     33.9501                57.7054                72.9705
 Red. masses --      3.3733                 2.4019                 1.8309
 Frc consts  --      0.0023                 0.0047                 0.0057
 IR Inten    --      0.3469                 0.0658                 0.7844

                      4                      5                      6
                      A                      A                      A
 Frequencies --     99.6827               116.9381               175.2668
 Red. masses --      2.4246                 2.0094                 1.6936
 Frc consts  --      0.0142                 0.0162                 0.0307
 IR Inten    --      3.9719                 1.8005                 2.6588

                      7                      8                      9
                      A                      A                      A
 Frequencies --    183.9346               215.9304               233.0838
 Red. masses --      3.0552                 1.6886                 1.1108
 Frc consts  --      0.0609                 0.0464                 0.0356
 IR Inten    --      0.1829                 3.2433                 1.3943

                     10                     11                     12
                      A                      A                      A
 Frequencies --    240.6110               268.7793               300.7373
 Red. masses --      1.2356                 3.0300                 2.8588
 Frc consts  --      0.0421                 0.1290                 0.1523
 IR Inten    --      2.4961                 0.6042                10.9385

                     13                     14                     15
                      A                      A                      A
 Frequencies --    340.3635               358.6476               378.6522
 Red. masses --      3.0051                 2.7557                 2.2368
 Frc consts  --      0.2051                 0.2088                 0.1890
 IR Inten    --      6.9735                 3.6600                 7.2565

                     16                     17                     18
                      A                      A                      A
 Frequencies --    455.2205               536.5396               610.9017
 Red. masses --      3.1084                 3.2090                 3.0566
 Frc consts  --      0.3795                 0.5443                 0.6721
 IR Inten    --     21.0027                 7.5524                 2.8463

                     19                     20                     21
                      A                      A                      A
 Frequencies --    734.6917               758.7743               864.6282
 Red. masses --      1.3754                 1.0978                 2.9329
 Frc consts  --      0.4374                 0.3724                 1.2918
 IR Inten    --     82.6505                 1.8559                16.7080

                     22                     23                     24
                      A                      A                      A
 Frequencies --    890.8720               894.9818               921.6753
 Red. masses --      1.2463                 1.3173                 1.8895
 Frc consts  --      0.5828                 0.6217                 0.9457
 IR Inten    --      0.8116                11.8805                 0.8626

                     25                     26                     27
                      A                      A                      A
 Frequencies --    945.4255              1021.5129              1046.0052
 Red. masses --      1.6992                 2.4293                 2.1781
 Frc consts  --      0.8949                 1.4935                 1.4041
 IR Inten    --      2.4533                29.0820                10.3895

                     28                     29                     30
                      A                      A                      A
 Frequencies --   1064.8248              1067.9831              1103.0187
 Red. masses --      2.1071                 1.5250                 2.0900
 Frc consts  --      1.4076                 1.0248                 1.4982
 IR Inten    --    111.1177                 0.8792                 4.1784

                     31                     32                     33
                      A                      A                      A
 Frequencies --   1118.0465              1132.0151              1159.0709
 Red. masses --      2.1484                 1.4663                 1.9755
 Frc consts  --      1.5823                 1.1071                 1.5637
 IR Inten    --     23.3288                25.4078                46.6631

                     34                     35                     36
                      A                      A                      A
 Frequencies --   1165.6310              1190.9646              1232.1610
 Red. masses --      2.6799                 2.3672                 2.4770
 Frc consts  --      2.1453                 1.9783                 2.2157
 IR Inten    --     92.5000                11.5642                20.1518

                     37                     38                     39
                      A                      A                      A
 Frequencies --   1252.9469              1292.6415              1302.1872
 Red. masses --      1.6039                 1.3546                 1.4214
 Frc consts  --      1.4835                 1.3336                 1.4201
 IR Inten    --     14.5802                 1.3168                 9.8290

                     40                     41                     42
                      A                      A                      A
 Frequencies --   1336.8808              1346.2346              1363.4266
 Red. masses --      1.2267                 1.3601                 1.2992
 Frc consts  --      1.2918                 1.4523                 1.4229
 IR Inten    --     16.1224                14.8034                24.4614

                     43                     44                     45
                      A                      A                      A
 Frequencies --   1401.6164              1408.7950              1413.4805
 Red. masses --      1.4009                 1.3012                 1.2586
 Frc consts  --      1.6215                 1.5216                 1.4816
 IR Inten    --     46.3608                 3.3708                14.8472

                     46                     47                     48
                      A                      A                      A
 Frequencies --   1428.9619              1455.8935              1478.0016
 Red. masses --      1.2537                 1.2393                 1.0463
 Frc consts  --      1.5083                 1.5477                 1.3466
 IR Inten    --      3.6836                 5.5176                 5.1570

                     49                     50                     51
                      A                      A                      A
 Frequencies --   1482.3276              1486.6605              1495.8011
 Red. masses --      1.0709                 1.0767                 1.0714
 Frc consts  --      1.3864                 1.4021                 1.4123
 IR Inten    --      8.3271                 1.7012                 1.1288

                     52                     53                     54
                      A                      A                      A
 Frequencies --   1499.0178              1500.7013              1503.1504
 Red. masses --      1.1092                 1.0742                 1.2081
 Frc consts  --      1.4685                 1.4253                 1.6082
 IR Inten    --      9.9568                11.3778                49.0191

                     55                     56                     57
                      A                      A                      A
 Frequencies --   1505.1524              1513.4876              1524.6850
 Red. masses --      1.0557                 1.0946                 1.0950
 Frc consts  --      1.4092                 1.4773                 1.4997
 IR Inten    --      4.2037                 2.4106                 3.1673

                     58                     59                     60
                      A                      A                      A
 Frequencies --   1719.3319              2895.8036              2928.8315
 Red. masses --      7.3981                 1.0718                 1.0609
 Frc consts  --     12.8851                 5.2955                 5.3619
 IR Inten    --      3.2322                60.7656                74.1101

                     61                     62                     63
                      A                      A                      A
 Frequencies --   2954.3105              2989.1745              3004.2026
 Red. masses --      1.0563                 1.1044                 1.0790
 Frc consts  --      5.4318                 5.8142                 5.7377
 IR Inten    --     64.4646                57.1595                57.7074

                     64                     65                     66
                      A                      A                      A
 Frequencies --   3020.1289              3029.4310              3033.3831
 Red. masses --      1.0436                 1.0369                 1.0638
 Frc consts  --      5.6081                 5.6070                 5.7671
 IR Inten    --     36.3697                22.6159                10.2850

                     67                     68                     69
                      A                      A                      A
 Frequencies --   3040.7222              3063.6897              3068.8906
 Red. masses --      1.0797                 1.0989                 1.1006
 Frc consts  --      5.8820                 6.0770                 6.1074
 IR Inten    --     41.7315                21.5994                10.0837

                     70                     71                     72
                      A                      A                      A
 Frequencies --   3086.7430              3098.4005              3104.6959
 Red. masses --      1.0731                 1.1017                 1.1004
 Frc consts  --      6.0242                 6.2313                 6.2494
 IR Inten    --     28.1431                61.0031                37.2533

                     73                     74                     75
                      A                      A                      A
 Frequencies --   3132.8728              3134.6944              3432.9848
 Red. masses --      1.0983                 1.1013                 1.0735
 Frc consts  --      6.3512                 6.3758                 7.4542
 IR Inten    --     13.1202                15.9556                 2.7821

 - Thermochemistry -
 -------------------
 Temperature   298.150 Kelvin.  Pressure   1.00000 Atm.
 Atom     1 has atomic number  6 and mass  12.00000

 Molecular mass:   143.14225 amu.
 Principal axes and moments of inertia in atomic units:
                           1         2         3
     Eigenvalues --   394.349764622.172704807.41344
           X            1.00000  -0.00055   0.00132
           Y            0.00054   1.00000   0.00123
           Z           -0.00132  -0.00123   1.00000
 This molecule is an asymmetric top.
 Rotational symmetry number  1.
 Rotational temperatures (Kelvin)      0.21964     0.01874     0.01802
 Rotational constants (GHZ):           4.57650     0.39045     0.37541
 Zero-point vibrational energy     638342.5 (Joules/Mol)
                                  152.56753 (Kcal/Mol)
 Warning -- explicit consideration of  18 degrees of freedom as
           vibrations may cause significant error
 Vibrational temperatures:     48.85    83.03   104.99   143.42   168.25
          (Kelvin)            252.17   264.64   310.68   335.36   346.19
                              386.71   432.69   489.71   516.01   544.80
                              654.96   771.96   878.95  1057.06  1091.71
                             1244.01  1281.77  1287.68  1326.09  1360.26
                             1469.73  1504.97  1532.05  1536.59  1587.00
                             1608.62  1628.72  1667.64  1677.08  1713.53
                             1772.80  1802.71  1859.82  1873.56  1923.47
                             1936.93  1961.67  2016.61  2026.94  2033.68
                             2055.96  2094.71  2126.51  2132.74  2138.97
                             2152.12  2156.75  2159.17  2162.70  2165.58
                             2177.57  2193.68  2473.74  4166.42  4213.94
                             4250.59  4300.76  4322.38  4345.29  4358.68
                             4364.36  4374.92  4407.97  4415.45  4441.13
                             4457.91  4466.97  4507.51  4510.13  4939.30

 Zero-point correction=                           0.243132 (Hartree/Particle)
 Thermal correction to Energy=                    0.256028
 Thermal correction to Enthalpy=                  0.256972
 Thermal correction to Gibbs Free Energy=         0.203351
 Sum of electronic and zero-point Energies=           -440.976929
 Sum of electronic and thermal Energies=              -440.964033
 Sum of electronic and thermal Enthalpies=            -440.963088
 Sum of electronic and thermal Free Energies=         -441.016710

                     E (Thermal)             CV                S
                      KCal/Mol        Cal/Mol-Kelvin    Cal/Mol-Kelvin
 Total                  160.660             45.543            112.855
 Electronic               0.000              0.000              0.000
 Translational            0.889              2.981             40.787
 Rotational               0.889              2.981             30.550
 Vibrational            158.882             39.582             41.518
 Vibration     1          0.594              1.983              5.584
 Vibration     2          0.596              1.974              4.534
 Vibration     3          0.599              1.967              4.072
 Vibration     4          0.604              1.949              3.461
 Vibration     5          0.608              1.935              3.150
 Vibration     6          0.627              1.873              2.378
 Vibration     7          0.631              1.862              2.288
 Vibration     8          0.645              1.817              1.993
 Vibration     9          0.654              1.790              1.855
 Vibration    10          0.658              1.778              1.798
 Vibration    11          0.673              1.731              1.604
 Vibration    12          0.693              1.672              1.413
 Vibration    13          0.720              1.595              1.210
 Vibration    14          0.733              1.557              1.128
 Vibration    15          0.749              1.516              1.045
 Vibration    16          0.814              1.349              0.780
 Vibration    17          0.892              1.169              0.573
 Vibration    18          0.970              1.009              0.431

 Optimization completed.
    -- Stationary point found.
 Normal termination of Gaussian 16 at Tue Jun  1 22:01:29 2021.
