 Gaussian 16, Revision A.03,
 Gaussian 16:  ES64L-G16RevA.03 25-Dec-2016

 -----------------------------
 # opt freq b3lyp/6-31g(2df,p)
 -----------------------------

 -------------------
 Title Card Required
 -------------------
 Symbolic Z-matrix:
 Charge =  0 Multiplicity = 1

 SCF Done:  E(RB3LYP) =  -423.989824587     A.U. after   13 cycles
 SCF Done:  E(RB3LYP) =  -423.995514507     A.U. after   11 cycles
 SCF Done:  E(RB3LYP) =  -423.996863009     A.U. after   10 cycles
 SCF Done:  E(RB3LYP) =  -423.996944718     A.U. after   10 cycles
 SCF Done:  E(RB3LYP) =  -423.996952449     A.U. after    7 cycles
 Optimization completed.
    -- Stationary point found.
 Normal termination of Gaussian 16 at Tue Jun  1 03:00:04 2021.

 ----------------------------------------------------------------------
 #N Geom=AllCheck Guess=TCheck SCRF=Check GenChk RB3LYP/6-31G(2df,p) Fr
 eq
 ----------------------------------------------------------------------

 Structure from the checkpoint file:  "CCdNCCpdNpCCCC.chk"
 -------------------
 Title Card Required
 -------------------
 Charge =  0 Multiplicity = 1

                         Standard orientation:
 ---------------------------------------------------------------------
 Center     Atomic      Atomic             Coordinates (Angstroms)
 Number     Number       Type             X           Y           Z
 ---------------------------------------------------------------------
      1          6           0       -5.012861    0.296066    0.000004
      2          6           0       -3.720275   -0.479098    0.000008
      3          7           0       -2.597709    0.102013   -0.000002
      4          6           0       -1.387672   -0.704782   -0.000007
      5          6           0       -0.132286    0.164136   -0.000005
      6          7           0       -0.148155    1.432735   -0.000003
      7          6           0        1.170325   -0.605468   -0.000003
      8          6           0        2.431697    0.258455    0.000000
      9          6           0        3.720628   -0.569728    0.000002
     10          6           0        4.984626    0.294429    0.000005
     11          1           0       -5.877625   -0.371303    0.000012
     12          1           0       -5.070403    0.943072   -0.880916
     13          1           0       -5.070398    0.943088    0.880913
     14          1           0       -3.806310   -1.578247    0.000011
     15          1           0       -1.357451   -1.367992   -0.877932
     16          1           0       -1.357449   -1.368001    0.877911
     17          1           0       -1.125105    1.744987   -0.000007
     18          1           0        1.172835   -1.278921   -0.871097
     19          1           0        1.172832   -1.278922    0.871091
     20          1           0        2.411535    0.922158    0.871689
     21          1           0        2.411538    0.922160   -0.871687
     22          1           0        3.730795   -1.231897   -0.876688
     23          1           0        3.730792   -1.231897    0.876691
     24          1           0        5.019704    0.941952   -0.883100
     25          1           0        5.890968   -0.319486    0.000006
     26          1           0        5.019701    0.941951    0.883110
 ---------------------------------------------------------------------

 SCF Done:  E(RB3LYP) =  -423.996952449     A.U. after    1 cycles

 The electronic state is 1-A.
 Alpha  occ. eigenvalues --  -14.32879 -14.28906 -10.23568 -10.21625 -10.21597
 Alpha  occ. eigenvalues --  -10.19063 -10.17947 -10.17149 -10.16545 -10.16475
 Alpha  occ. eigenvalues --   -0.93143  -0.88348  -0.78606  -0.75800  -0.73038
 Alpha  occ. eigenvalues --   -0.69214  -0.63526  -0.57381  -0.56210  -0.52587
 Alpha  occ. eigenvalues --   -0.48862  -0.47045  -0.46951  -0.45228  -0.42402
 Alpha  occ. eigenvalues --   -0.41908  -0.40765  -0.40662  -0.39197  -0.38791
 Alpha  occ. eigenvalues --   -0.35941  -0.34821  -0.32549  -0.31602  -0.31444
 Alpha  occ. eigenvalues --   -0.29783  -0.28118  -0.25903  -0.24209
 Alpha virt. eigenvalues --   -0.01756   0.02267   0.08980   0.10274   0.10608
 Alpha virt. eigenvalues --    0.11901   0.13857   0.14114   0.15437   0.16065
 Alpha virt. eigenvalues --    0.16335   0.17267   0.18506   0.18891   0.19083

 Mulliken charges:
               1
     1  C   -0.434964
     2  C    0.043162
     3  N   -0.159103
     4  C   -0.215049
     5  C    0.274504
     6  N   -0.455711
     7  C   -0.259532
     8  C   -0.149313
     9  C   -0.167181
    10  C   -0.379415
    11  H    0.123022
    12  H    0.149053
    13  H    0.149053
    14  H    0.083965
    15  H    0.118338
    16  H    0.118337
    17  H    0.224668
    18  H    0.103210
    19  H    0.103210
    20  H    0.108739
    21  H    0.108739
    22  H    0.088369
    23  H    0.088369
    24  H    0.114466
    25  H    0.106599
    26  H    0.114466
 Sum of Mulliken charges =  -0.00000

 Dipole moment (field-independent basis, Debye):
    X=             -2.3438    Y=             -2.8493    Z=             -0.0000  Tot=              3.6895
 Quadrupole moment (field-independent basis, Debye-Ang):
   XX=            -53.0667   YY=            -65.2019   ZZ=            -62.3539
   XY=              0.9259   XZ=             -0.0000   YZ=              0.0000

  Exact polarizability: 141.505  -0.387  96.112  -0.000  -0.000  73.252
 Approx polarizability: 155.068   2.504 155.010  -0.000  -0.000 114.990

 ******    2 imaginary frequencies (negative Signs) ******

                      1                      2                      3
                      A                      A                      A
 Frequencies --   -210.9600               -91.0125                35.4043
 Red. masses --      1.2759                 1.9803                 3.1607
 Frc consts  --      0.0335                 0.0097                 0.0023
 IR Inten    --      4.7419                 0.3639                 0.6629

                      4                      5                      6
                      A                      A                      A
 Frequencies --     53.2119                73.1215                98.5938
 Red. masses --      1.7275                 3.5540                 2.4282
 Frc consts  --      0.0029                 0.0112                 0.0139
 IR Inten    --      1.3937                 0.9400                 0.2393

                      7                      8                      9
                      A                      A                      A
 Frequencies --    126.9989               157.6252               246.0601
 Red. masses --      1.8947                 3.4605                 1.1124
 Frc consts  --      0.0180                 0.0507                 0.0397
 IR Inten    --      0.0320                 0.7300                 0.0029

                     10                     11                     12
                      A                      A                      A
 Frequencies --    254.4392               255.8470               298.7466
 Red. masses --      3.9320                 2.3575                 3.6492
 Frc consts  --      0.1500                 0.0909                 0.1919
 IR Inten    --      0.0320                 5.2776                 4.1499

                     13                     14                     15
                      A                      A                      A
 Frequencies --    360.7040               435.1998               437.7488
 Red. masses --      4.5200                 2.9580                 2.2063
 Frc consts  --      0.3465                 0.3301                 0.2491
 IR Inten    --      3.6925                 0.2747                 0.1468

                     16                     17                     18
                      A                      A                      A
 Frequencies --    549.5205               663.3007               718.2561
 Red. masses --      3.1128                 3.8901                 1.1292
 Frc consts  --      0.5538                 1.0084                 0.3432
 IR Inten    --      0.3017                19.3055                10.6695

                     19                     20                     21
                      A                      A                      A
 Frequencies --    759.8594               830.3639               878.9635
 Red. masses --      1.1941                 1.2552                 3.4447
 Frc consts  --      0.4062                 0.5099                 1.5680
 IR Inten    --      2.6845                 6.3968                 0.0591

                     22                     23                     24
                      A                      A                      A
 Frequencies --    882.1403               916.6800               946.4908
 Red. masses --      1.2268                 2.0190                 2.3125
 Frc consts  --      0.5625                 0.9996                 1.2206
 IR Inten    --      3.6064                 6.0933                 2.7154

                     25                     26                     27
                      A                      A                      A
 Frequencies --    960.3127              1001.2978              1047.1478
 Red. masses --      1.2665                 3.2424                 2.5539
 Frc consts  --      0.6881                 1.9153                 1.6500
 IR Inten    --      1.2380                 7.1848                 6.9678

                     28                     29                     30
                      A                      A                      A
 Frequencies --   1047.6913              1073.1793              1084.9265
 Red. masses --      1.4661                 2.0456                 2.9940
 Frc consts  --      0.9482                 1.3881                 2.0764
 IR Inten    --     19.9975                 2.2996                 4.1170

                     31                     32                     33
                      A                      A                      A
 Frequencies --   1100.1667              1124.6479              1133.7136
 Red. masses --      1.5898                 2.1988                 2.4426
 Frc consts  --      1.1337                 1.6386                 1.8497
 IR Inten    --      2.3613                 8.3586                28.8901

                     34                     35                     36
                      A                      A                      A
 Frequencies --   1139.2618              1229.3879              1253.9326
 Red. masses --      1.4473                 1.3098                 1.2170
 Frc consts  --      1.1068                 1.1663                 1.1274
 IR Inten    --      7.2333                 0.6265                 0.0068

                     37                     38                     39
                      A                      A                      A
 Frequencies --   1262.6983              1316.3072              1316.7605
 Red. masses --      1.2883                 1.1747                 1.2577
 Frc consts  --      1.2103                 1.1992                 1.2848
 IR Inten    --     45.1878                 0.0000                53.9459

                     40                     41                     42
                      A                      A                      A
 Frequencies --   1324.7451              1359.1280              1386.0122
 Red. masses --      1.0532                 1.3699                 1.2577
 Frc consts  --      1.0890                 1.4910                 1.4235
 IR Inten    --      0.2040                12.4447                12.6728

                     43                     44                     45
                      A                      A                      A
 Frequencies --   1396.0202              1411.5224              1417.3756
 Red. masses --      1.5620                 1.2543                 1.3343
 Frc consts  --      1.7935                 1.4724                 1.5794
 IR Inten    --     13.5941                 3.0798                15.6097

                     46                     47                     48
                      A                      A                      A
 Frequencies --   1431.0734              1444.4129              1463.9465
 Red. masses --      1.9109                 1.1227                 1.0890
 Frc consts  --      2.3058                 1.3801                 1.3750
 IR Inten    --     52.4473                 7.4385                 5.5983

                     49                     50                     51
                      A                      A                      A
 Frequencies --   1479.5438              1480.9157              1482.5412
 Red. masses --      1.0540                 1.0451                 1.0746
 Frc consts  --      1.3594                 1.3505                 1.3915
 IR Inten    --      6.6495                 5.6834                 2.2868

                     52                     53                     54
                      A                      A                      A
 Frequencies --   1495.0646              1499.2644              1511.4273
 Red. masses --      1.0642                 1.0401                 1.0845
 Frc consts  --      1.4015                 1.3775                 1.4596
 IR Inten    --      0.1569                 4.6815                 3.5777

                     55                     56                     57
                      A                      A                      A
 Frequencies --   1741.0302              1765.9952              2973.2003
 Red. masses --      8.8188                 8.9897                 1.0793
 Frc consts  --     15.7497                16.5187                 5.6214
 IR Inten    --     40.1626               127.8280                32.3386

                     58                     59                     60
                      A                      A                      A
 Frequencies --   2981.5218              2992.0204              3006.0482
 Red. masses --      1.0626                 1.0595                 1.0588
 Frc consts  --      5.5652                 5.5881                 5.6374
 IR Inten    --     31.0659                35.7000                35.8479

                     61                     62                     63
                      A                      A                      A
 Frequencies --   3008.0968              3017.8028              3028.4906
 Red. masses --      1.0991                 1.1005                 1.0354
 Frc consts  --      5.8597                 5.9053                 5.5953
 IR Inten    --      0.8693                31.6874                27.8122

                     64                     65                     66
                      A                      A                      A
 Frequencies --   3031.9460              3044.5550              3044.7595
 Red. masses --      1.1009                 1.0369                 1.0588
 Frc consts  --      5.9628                 5.6627                 5.7833
 IR Inten    --     12.6380                10.0956                27.1640

                     67                     68                     69
                      A                      A                      A
 Frequencies --   3081.9616              3096.8885              3099.1944
 Red. masses --      1.1034                 1.1021                 1.1012
 Frc consts  --      6.1749                 6.2275                 6.2319
 IR Inten    --     14.3823                64.6226                40.2788

                     70                     71                     72
                      A                      A                      A
 Frequencies --   3108.0568              3130.7214              3410.3619
 Red. masses --      1.0997                 1.1021                 1.0716
 Frc consts  --      6.2592                 6.3647                 7.3432
 IR Inten    --      7.3009                21.0348                14.4810

 - Thermochemistry -
 -------------------
 Temperature   298.150 Kelvin.  Pressure   1.00000 Atm.
 Atom     1 has atomic number  6 and mass  12.00000

 Molecular mass:   140.13135 amu.
 Principal axes and moments of inertia in atomic units:
                           1         2         3
     Eigenvalues --   284.293494931.376615149.24881
           X            1.00000   0.00006   0.00000
           Y           -0.00006   1.00000   0.00000
           Z           -0.00000  -0.00000   1.00000
 This molecule is an asymmetric top.
 Rotational symmetry number  1.
 Rotational temperatures (Kelvin)      0.30466     0.01756     0.01682
 Rotational constants (GHZ):           6.34816     0.36597     0.35049
    2 imaginary frequencies ignored.
 Zero-point vibrational energy     605408.2 (Joules/Mol)
                                  144.69604 (Kcal/Mol)
 Warning -- explicit consideration of  14 degrees of freedom as
           vibrations may cause significant error
 Vibrational temperatures:     50.94    76.56   105.21   141.85   182.72
          (Kelvin)            226.79   354.03   366.08   368.11   429.83
                              518.97   626.16   629.82   790.64   954.34
                             1033.41  1093.27  1194.71  1264.63  1269.20
                             1318.90  1361.79  1381.68  1440.64  1506.61
                             1507.39  1544.07  1560.97  1582.89  1618.12
                             1631.16  1639.14  1768.82  1804.13  1816.74
                             1893.87  1894.52  1906.01  1955.48  1994.16
                             2008.56  2030.87  2039.29  2059.00  2078.19
                             2106.29  2128.73  2130.71  2133.05  2151.06
                             2157.11  2174.61  2504.95  2540.87  4277.77
                             4289.74  4304.85  4325.03  4327.98  4341.95
                             4357.32  4362.29  4380.44  4380.73  4434.26
                             4455.73  4459.05  4471.80  4504.41  4906.75

 Zero-point correction=                           0.230588 (Hartree/Particle)
 Thermal correction to Energy=                    0.241972
 Thermal correction to Enthalpy=                  0.242916
 Thermal correction to Gibbs Free Energy=         0.192061
 Sum of electronic and zero-point Energies=           -423.766365
 Sum of electronic and thermal Energies=              -423.754980
 Sum of electronic and thermal Enthalpies=            -423.754036
 Sum of electronic and thermal Free Energies=         -423.804892

                     E (Thermal)             CV                S
                      KCal/Mol        Cal/Mol-Kelvin    Cal/Mol-Kelvin
 Total                  151.840             40.447            107.034
 Electronic               0.000              0.000              0.000
 Translational            0.889              2.981             40.724
 Rotational               0.889              2.981             30.358
 Vibrational            150.062             34.486             35.953
 Vibration     1          0.594              1.982              5.501
 Vibration     2          0.596              1.976              4.694
 Vibration     3          0.599              1.967              4.068
 Vibration     4          0.604              1.950              3.482
 Vibration     5          0.611              1.926              2.991
 Vibration     6          0.621              1.894              2.578
 Vibration     7          0.661              1.769              1.759
 Vibration     8          0.665              1.755              1.700
 Vibration     9          0.666              1.753              1.690
 Vibration    10          0.692              1.676              1.424
 Vibration    11          0.735              1.553              1.119
 Vibration    12          0.796              1.393              0.842
 Vibration    13          0.798              1.388              0.834
 Vibration    14          0.905              1.141              0.545

 Optimization completed.
    -- Stationary point found.
 Normal termination of Gaussian 16 at Tue Jun  1 03:35:08 2021.
