 Gaussian 16, Revision A.03,
 Gaussian 16:  ES64L-G16RevA.03 25-Dec-2016

 -----------------------------
 # opt freq b3lyp/6-31g(2df,p)
 -----------------------------

 -------------------
 Title Card Required
 -------------------
 Symbolic Z-matrix:
 Charge =  0 Multiplicity = 1

 SCF Done:  E(RB3LYP) =  -341.987815099     A.U. after   14 cycles
 SCF Done:  E(RB3LYP) =  -341.991207422     A.U. after   12 cycles
 SCF Done:  E(RB3LYP) =  -341.991499843     A.U. after   10 cycles
 SCF Done:  E(RB3LYP) =  -341.991545663     A.U. after    9 cycles
 SCF Done:  E(RB3LYP) =  -341.991549887     A.U. after    8 cycles
 SCF Done:  E(RB3LYP) =  -341.991550257     A.U. after    7 cycles
 Optimization completed.
    -- Stationary point found.
 Normal termination of Gaussian 16 at Tue Jun  1 04:42:17 2021.

 ----------------------------------------------------------------------
 #N Geom=AllCheck Guess=TCheck SCRF=Check GenChk RB3LYP/6-31G(2df,p) Fr
 eq
 ----------------------------------------------------------------------

 Structure from the checkpoint file:  "CCdNCCpNpdO.chk"
 -------------------
 Title Card Required
 -------------------
 Charge =  0 Multiplicity = 1

                         Standard orientation:
 ---------------------------------------------------------------------
 Center     Atomic      Atomic             Coordinates (Angstroms)
 Number     Number       Type             X           Y           Z
 ---------------------------------------------------------------------
      1          6           0        3.209566    0.345642   -0.000012
      2          6           0        1.946765   -0.476566   -0.000007
      3          7           0        0.801550    0.060374    0.000017
      4          6           0       -0.376820   -0.799529    0.000019
      5          6           0       -1.697446   -0.021452    0.000028
      6          7           0       -1.550386    1.325397    0.000002
      7          8           0       -2.765506   -0.603577   -0.000031
      8          1           0        4.097949   -0.289704   -0.000043
      9          1           0        3.244725    0.993776    0.881367
     10          1           0        3.244692    0.993815   -0.881365
     11          1           0        2.070740   -1.571060   -0.000029
     12          1           0       -0.396921   -1.455332    0.879571
     13          1           0       -0.396925   -1.455333   -0.879532
     14          1           0       -0.621366    1.714807    0.000015
     15          1           0       -2.369391    1.908682   -0.000035
 ---------------------------------------------------------------------

 SCF Done:  E(RB3LYP) =  -341.991550257     A.U. after    1 cycles

 The electronic state is 1-A.
 Alpha  occ. eigenvalues --  -19.08571 -14.33532 -14.33494 -10.26785 -10.24028
 Alpha  occ. eigenvalues --  -10.21549 -10.19567  -1.01642  -0.93231  -0.88849
 Alpha  occ. eigenvalues --   -0.76406  -0.70028  -0.57715  -0.56931  -0.52907
 Alpha  occ. eigenvalues --   -0.50225  -0.46429  -0.43791  -0.42843  -0.41895
 Alpha  occ. eigenvalues --   -0.39629  -0.38087  -0.36876  -0.29826  -0.26867
 Alpha  occ. eigenvalues --   -0.25377  -0.23409
 Alpha virt. eigenvalues --   -0.02236   0.04656   0.09857   0.10459   0.11299
 Alpha virt. eigenvalues --    0.12872   0.16109   0.16428   0.17701   0.19579
 Alpha virt. eigenvalues --    0.20316   0.23239   0.27358   0.30301   0.32960

 Mulliken charges:
               1
     1  C   -0.437503
     2  C    0.045217
     3  N   -0.168114
     4  C   -0.246472
     5  C    0.374375
     6  N   -0.508557
     7  O   -0.371543
     8  H    0.126927
     9  H    0.147838
    10  H    0.147838
    11  H    0.091026
    12  H    0.139117
    13  H    0.139119
    14  H    0.264498
    15  H    0.256235
 Sum of Mulliken charges =  -0.00000

 Dipole moment (field-independent basis, Debye):
    X=              4.0889    Y=              1.2010    Z=              0.0000  Tot=              4.2617
 Quadrupole moment (field-independent basis, Debye-Ang):
   XX=            -46.5164   YY=            -37.2838   ZZ=            -41.6235
   XY=             -6.9344   XZ=             -0.0002   YZ=             -0.0001

  Exact polarizability:  84.130   0.554  61.221   0.000   0.000  38.838
 Approx polarizability: 109.164   2.927  92.367   0.000   0.000  58.955

 ******    2 imaginary frequencies (negative Signs) ******

                      1                      2                      3
                      A                      A                      A
 Frequencies --   -210.8633               -95.9024                71.5044
 Red. masses --      1.2663                 2.0807                 3.0080
 Frc consts  --      0.0332                 0.0113                 0.0091
 IR Inten    --      0.9995                 0.2566                 0.8111

                      4                      5                      6
                      A                      A                      A
 Frequencies --    142.9252               243.7310               310.0411
 Red. masses --      3.6031                 2.2636                 1.1440
 Frc consts  --      0.0434                 0.0792                 0.0648
 IR Inten    --      3.3703                 1.2379               190.4880

                      7                      8                      9
                      A                      A                      A
 Frequencies --    341.0826               394.2390               527.2235
 Red. masses --      3.6436                 5.7859                 2.1430
 Frc consts  --      0.2497                 0.5298                 0.3510
 IR Inten    --     21.7361                 2.0620                13.0895

                     10                     11                     12
                      A                      A                      A
 Frequencies --    546.5002               574.3638               703.1454
 Red. masses --      2.6750                 3.6021                 1.1695
 Frc consts  --      0.4707                 0.7001                 0.3407
 IR Inten    --      7.1377                 5.8526                 1.6386

                     13                     14                     15
                      A                      A                      A
 Frequencies --    842.8467               876.0218               948.2447
 Red. masses --      1.3181                 3.3675                 2.0963
 Frc consts  --      0.5517                 1.5226                 1.1106
 IR Inten    --      2.3453                 0.2529                 7.0608

                     16                     17                     18
                      A                      A                      A
 Frequencies --    987.6634              1068.3281              1097.4507
 Red. masses --      2.1338                 3.5976                 1.9061
 Frc consts  --      1.2264                 2.4192                 1.3526
 IR Inten    --      2.0093                 0.7708                22.8300

                     19                     20                     21
                      A                      A                      A
 Frequencies --   1098.6788              1134.9271              1234.9238
 Red. masses --      1.6188                 2.2517                 1.1031
 Frc consts  --      1.1513                 1.7088                 0.9912
 IR Inten    --      0.1346                22.5271                 1.1028

                     22                     23                     24
                      A                      A                      A
 Frequencies --   1326.7777              1358.5754              1387.6095
 Red. masses --      1.3007                 2.4595                 1.2909
 Frc consts  --      1.3490                 2.6747                 1.4644
 IR Inten    --     33.7596                85.0486                 9.0873

                     25                     26                     27
                      A                      A                      A
 Frequencies --   1419.4985              1442.2027              1479.5326
 Red. masses --      1.3334                 1.1574                 1.0553
 Frc consts  --      1.5830                 1.4183                 1.3611
 IR Inten    --      0.9853                 5.7332                 6.3356

                     28                     29                     30
                      A                      A                      A
 Frequencies --   1481.5589              1581.1095              1761.4009
 Red. masses --      1.0451                 1.3409                 8.9296
 Frc consts  --      1.3516                 1.9750                16.3230
 IR Inten    --      5.9878               199.3652                62.6404

                     31                     32                     33
                      A                      A                      A
 Frequencies --   1807.4099              2988.9241              3022.2235
 Red. masses --     10.1846                 1.0854                 1.0579
 Frc consts  --     19.6023                 5.7131                 5.6933
 IR Inten    --    364.1376                49.3591                18.5802

                     34                     35                     36
                      A                      A                      A
 Frequencies --   3044.2131              3064.0824              3106.8704
 Red. masses --      1.0364                 1.1034                 1.0998
 Frc consts  --      5.6589                 6.1035                 6.2545
 IR Inten    --      8.1424                 9.3832                 7.7012

                     37                     38                     39
                      A                      A                      A
 Frequencies --   3131.9149              3585.7798              3734.5597
 Red. masses --      1.1018                 1.0436                 1.1052
 Frc consts  --      6.3677                 7.9058                 9.0821
 IR Inten    --     19.0597                47.8761                92.0738

 - Thermochemistry -
 -------------------
 Temperature   298.150 Kelvin.  Pressure   1.00000 Atm.
 Atom     1 has atomic number  6 and mass  12.00000

 Molecular mass:   100.06366 amu.
 Principal axes and moments of inertia in atomic units:
                           1         2         3
     Eigenvalues --   217.416951505.413761700.51085
           X            0.99998  -0.00643  -0.00000
           Y            0.00643   0.99998  -0.00000
           Z            0.00000   0.00000   1.00000
 This molecule is an asymmetric top.
 Rotational symmetry number  1.
 Rotational temperatures (Kelvin)      0.39838     0.05753     0.05093
 Rotational constants (GHZ):           8.30083     1.19883     1.06129
    2 imaginary frequencies ignored.
 Zero-point vibrational energy     322202.7 (Joules/Mol)
                                   77.00829 (Kcal/Mol)
 Warning -- explicit consideration of   9 degrees of freedom as
           vibrations may cause significant error
 Vibrational temperatures:    102.88   205.64   350.67   446.08   490.74
          (Kelvin)            567.22   758.56   786.29   826.38  1011.67
                             1212.67  1260.40  1364.31  1421.03  1537.09
                             1578.99  1580.75  1632.91  1776.78  1908.94
                             1954.69  1996.46  2042.34  2075.01  2128.72
                             2131.63  2274.86  2534.26  2600.46  4300.40
                             4348.31  4379.94  4408.53  4470.09  4506.13
                             5159.14  5373.20

 Zero-point correction=                           0.122721 (Hartree/Particle)
 Thermal correction to Energy=                    0.129653
 Thermal correction to Enthalpy=                  0.130597
 Thermal correction to Gibbs Free Energy=         0.091330
 Sum of electronic and zero-point Energies=           -341.868830
 Sum of electronic and thermal Energies=              -341.861897
 Sum of electronic and thermal Enthalpies=            -341.860953
 Sum of electronic and thermal Free Energies=         -341.900221

                     E (Thermal)             CV                S
                      KCal/Mol        Cal/Mol-Kelvin    Cal/Mol-Kelvin
 Total                   81.358             24.670             82.645
 Electronic               0.000              0.000              0.000
 Translational            0.889              2.981             39.720
 Rotational               0.889              2.981             27.811
 Vibrational             79.581             18.709             15.114
 Vibration     1          0.598              1.968              4.112
 Vibration     2          0.616              1.910              2.764
 Vibration     3          0.659              1.773              1.775
 Vibration     4          0.699              1.655              1.362
 Vibration     5          0.721              1.593              1.207
 Vibration     6          0.761              1.482              0.984
 Vibration     7          0.882              1.190              0.593
 Vibration     8          0.902              1.147              0.551
 Vibration     9          0.931              1.087              0.496

 Optimization completed.
    -- Stationary point found.
 Normal termination of Gaussian 16 at Tue Jun  1 04:55:54 2021.
