 Gaussian 16, Revision A.03,
 Gaussian 16:  ES64L-G16RevA.03 25-Dec-2016

 -----------------------------
 # opt freq b3lyp/6-31g(2df,p)
 -----------------------------

 -------------------
 Title Card Required
 -------------------
 Symbolic Z-matrix:
 Charge =  0 Multiplicity = 1

 SCF Done:  E(RB3LYP) =  -495.375658357     A.U. after   14 cycles
 SCF Done:  E(RB3LYP) =  -495.384109901     A.U. after   12 cycles
 SCF Done:  E(RB3LYP) =  -495.385858574     A.U. after   12 cycles
 SCF Done:  E(RB3LYP) =  -495.386756676     A.U. after   12 cycles
 SCF Done:  E(RB3LYP) =  -495.386887545     A.U. after   10 cycles
 SCF Done:  E(RB3LYP) =  -495.386907462     A.U. after   10 cycles
 SCF Done:  E(RB3LYP) =  -495.386916503     A.U. after    9 cycles
 SCF Done:  E(RB3LYP) =  -495.386923994     A.U. after   10 cycles
 SCF Done:  E(RB3LYP) =  -495.386996664     A.U. after   13 cycles
 SCF Done:  E(RB3LYP) =  -495.386780049     A.U. after   13 cycles
 SCF Done:  E(RB3LYP) =  -495.391042348     A.U. after    9 cycles
 SCF Done:  E(RB3LYP) =  -495.391063672     A.U. after   11 cycles
 SCF Done:  E(RB3LYP) =  -495.391085609     A.U. after   10 cycles
 SCF Done:  E(RB3LYP) =  -495.391086457     A.U. after    9 cycles
 SCF Done:  E(RB3LYP) =  -495.391086984     A.U. after    7 cycles
 SCF Done:  E(RB3LYP) =  -495.391087329     A.U. after    7 cycles
 SCF Done:  E(RB3LYP) =  -495.391087440     A.U. after    7 cycles
 SCF Done:  E(RB3LYP) =  -495.391087519     A.U. after    7 cycles
 SCF Done:  E(RB3LYP) =  -495.391087546     A.U. after    6 cycles
 Optimization completed.
    -- Stationary point found.
 Normal termination of Gaussian 16 at Tue Jun  1 15:02:11 2021.

 ----------------------------------------------------------------------
 #N Geom=AllCheck Guess=TCheck SCRF=Check GenChk RB3LYP/6-31G(2df,p) Fr
 eq
 ----------------------------------------------------------------------

 Structure from the checkpoint file:  "CCdNCNCpdNpCNCC.chk"
 -------------------
 Title Card Required
 -------------------
 Charge =  0 Multiplicity = 1

                         Standard orientation:
 ---------------------------------------------------------------------
 Center     Atomic      Atomic             Coordinates (Angstroms)
 Number     Number       Type             X           Y           Z
 ---------------------------------------------------------------------
      1          6           0       -5.391416   -0.811999   -0.243540
      2          6           0       -4.166659    0.044579   -0.317175
      3          7           0       -3.124497   -0.204528    0.357951
      4          6           0       -2.000399    0.700648    0.236230
      5          7           0       -0.804559   -0.100454    0.071237
      6          6           0        0.457387    0.431307    0.105003
      7          7           0        0.774844    1.671448    0.065260
      8          6           0        1.564956   -0.605083    0.222004
      9          7           0        2.807055   -0.109335   -0.328856
     10          6           0        3.995138   -0.746352    0.215053
     11          6           0        5.261588   -0.124279   -0.365898
     12          1           0       -6.249021   -0.220824    0.099613
     13          1           0       -5.233991   -1.649420    0.437900
     14          1           0       -5.651114   -1.192226   -1.238641
     15          1           0       -4.222541    0.912813   -0.994146
     16          1           0       -1.938445    1.303179    1.158090
     17          1           0       -2.104808    1.401244   -0.610515
     18          1           0       -0.926227   -1.075635    0.297214
     19          1           0       -0.035936    2.285648    0.012813
     20          1           0        1.257813   -1.528323   -0.291068
     21          1           0        1.644518   -0.864356    1.298583
     22          1           0        2.822613    0.897010   -0.181895
     23          1           0        3.962317   -1.814880   -0.040609
     24          1           0        4.032670   -0.700795    1.322315
     25          1           0        5.263088   -0.202663   -1.456849
     26          1           0        6.155289   -0.621629    0.023010
     27          1           0        5.330315    0.938008   -0.105028
 ---------------------------------------------------------------------

 SCF Done:  E(RB3LYP) =  -495.391087546     A.U. after    1 cycles

 The electronic state is 1-A.
 Alpha  occ. eigenvalues --  -14.34372 -14.33769 -14.29067 -14.28083 -10.25078
 Alpha  occ. eigenvalues --  -10.24478 -10.24415 -10.20260 -10.19748 -10.19201
 Alpha  occ. eigenvalues --  -10.16272  -0.96784  -0.92642  -0.88688  -0.84291
 Alpha  occ. eigenvalues --   -0.76138  -0.73916  -0.69667  -0.64924  -0.59191
 Alpha  occ. eigenvalues --   -0.58363  -0.55979  -0.52739  -0.50058  -0.47912
 Alpha  occ. eigenvalues --   -0.46739  -0.45606  -0.44195  -0.43364  -0.42590
 Alpha  occ. eigenvalues --   -0.41315  -0.40136  -0.39494  -0.36885  -0.35291
 Alpha  occ. eigenvalues --   -0.33783  -0.33373  -0.32764  -0.30571  -0.27209
 Alpha  occ. eigenvalues --   -0.25492  -0.22759  -0.20374
 Alpha virt. eigenvalues --   -0.01479   0.04482   0.08559   0.09423   0.10677
 Alpha virt. eigenvalues --    0.11067   0.12236   0.13721   0.14398   0.15238
 Alpha virt. eigenvalues --    0.15580   0.15664   0.17397   0.18031   0.18514

 Mulliken charges:
               1
     1  C   -0.436927
     2  C    0.054450
     3  N   -0.168464
     4  C   -0.103288
     5  N   -0.322982
     6  C    0.385169
     7  N   -0.545833
     8  C   -0.207069
     9  N   -0.287744
    10  C   -0.093587
    11  C   -0.387725
    12  H    0.138824
    13  H    0.142741
    14  H    0.138551
    15  H    0.089168
    16  H    0.115585
    17  H    0.100619
    18  H    0.246952
    19  H    0.206571
    20  H    0.098151
    21  H    0.092354
    22  H    0.234382
    23  H    0.092170
    24  H    0.069451
    25  H    0.124233
    26  H    0.108465
    27  H    0.115783
 Sum of Mulliken charges =  -0.00000

 Dipole moment (field-independent basis, Debye):
    X=             -3.9671    Y=             -0.8727    Z=              0.1895  Tot=              4.0664
 Quadrupole moment (field-independent basis, Debye-Ang):
   XX=            -55.7859   YY=            -67.7506   ZZ=            -70.5366
   XY=             -4.5451   XZ=              5.5753   YZ=             -0.0716

  Exact polarizability: 156.402   4.599  97.985   6.112  -3.379  78.589
 Approx polarizability: 173.066   8.281 155.040  11.588  -6.509 123.500

                      1                      2                      3
                      A                      A                      A
 Frequencies --     21.5865                47.2511                59.3702
 Red. masses --      3.2360                 3.6182                 3.2631
 Frc consts  --      0.0009                 0.0048                 0.0068
 IR Inten    --      0.3293                 3.1990                 0.5170

                      4                      5                      6
                      A                      A                      A
 Frequencies --     79.3561                96.5722               118.6114
 Red. masses --      2.2609                 1.9383                 2.3930
 Frc consts  --      0.0084                 0.0107                 0.0198
 IR Inten    --      4.4801                 2.0511                 4.1588

                      7                      8                      9
                      A                      A                      A
 Frequencies --    148.4698               177.7597               203.2469
 Red. masses --      3.3218                 2.4832                 1.4129
 Frc consts  --      0.0431                 0.0462                 0.0344
 IR Inten    --      2.6816                 2.1365                 1.3070

                     10                     11                     12
                      A                      A                      A
 Frequencies --    240.0045               256.0565               271.6596
 Red. masses --      3.2016                 1.1471                 4.3943
 Frc consts  --      0.1087                 0.0443                 0.1911
 IR Inten    --      4.6953                 1.1903                 0.7750

                     13                     14                     15
                      A                      A                      A
 Frequencies --    303.2372               350.0501               388.9910
 Red. masses --      2.2892                 3.8101                 1.2401
 Frc consts  --      0.1240                 0.2751                 0.1106
 IR Inten    --     12.8429                13.2911                73.6987

                     16                     17                     18
                      A                      A                      A
 Frequencies --    428.5837               513.1394               547.7076
 Red. masses --      3.2002                 2.9330                 2.6642
 Frc consts  --      0.3463                 0.4550                 0.4709
 IR Inten    --      5.3530                10.2536                 9.7420

                     19                     20                     21
                      A                      A                      A
 Frequencies --    576.7388               704.4182               790.2650
 Red. masses --      2.5998                 3.1451                 1.3127
 Frc consts  --      0.5095                 0.9195                 0.4830
 IR Inten    --      0.6957                11.0219                56.8878

                     22                     23                     24
                      A                      A                      A
 Frequencies --    819.0193               827.3001               877.7198
 Red. masses --      1.1509                 1.3845                 1.2286
 Frc consts  --      0.4549                 0.5583                 0.5577
 IR Inten    --      3.3240                41.9759                 9.1436

                     25                     26                     27
                      A                      A                      A
 Frequencies --    896.9206               932.8854               960.3712
 Red. masses --      2.1407                 1.7176                 1.8970
 Frc consts  --      1.0146                 0.8807                 1.0308
 IR Inten    --     11.9937                 4.0703                16.1597

                     28                     29                     30
                      A                      A                      A
 Frequencies --   1018.9288              1049.0416              1071.6114
 Red. masses --      1.7766                 2.9463                 3.1724
 Frc consts  --      1.0868                 1.9104                 2.1464
 IR Inten    --      3.9308                 4.7879                13.6122

                     31                     32                     33
                      A                      A                      A
 Frequencies --   1091.2713              1097.8947              1109.6829
 Red. masses --      1.7464                 2.6243                 1.8587
 Frc consts  --      1.2253                 1.8638                 1.3485
 IR Inten    --      5.0253                 5.6111                 1.2839

                     34                     35                     36
                      A                      A                      A
 Frequencies --   1144.2473              1162.4966              1175.3024
 Red. masses --      1.8529                 2.0932                 2.1377
 Frc consts  --      1.4294                 1.6667                 1.7398
 IR Inten    --     18.4952                14.4099                37.7517

                     37                     38                     39
                      A                      A                      A
 Frequencies --   1190.1362              1209.1340              1247.8865
 Red. masses --      2.4259                 2.1817                 1.0654
 Frc consts  --      2.0245                 1.8793                 0.9775
 IR Inten    --     50.2962                30.5592                 6.0700

                     40                     41                     42
                      A                      A                      A
 Frequencies --   1253.6202              1285.0441              1305.3898
 Red. masses --      1.3023                 1.3021                 1.1997
 Frc consts  --      1.2059                 1.2669                 1.2045
 IR Inten    --      8.6482                82.7019                19.5752

                     43                     44                     45
                      A                      A                      A
 Frequencies --   1355.3768              1378.1415              1397.4186
 Red. masses --      1.2728                 1.2259                 1.2680
 Frc consts  --      1.3777                 1.3718                 1.4589
 IR Inten    --      4.6496                 8.2307                 8.3600

                     46                     47                     48
                      A                      A                      A
 Frequencies --   1404.7794              1417.8134              1435.2071
 Red. masses --      1.3018                 1.4177                 1.5348
 Frc consts  --      1.5136                 1.6791                 1.8626
 IR Inten    --     12.7715                 8.9325                 6.2464

                     49                     50                     51
                      A                      A                      A
 Frequencies --   1472.1624              1477.4692              1484.1932
 Red. masses --      1.0569                 1.0454                 1.1032
 Frc consts  --      1.3495                 1.3446                 1.4318
 IR Inten    --     20.2633                 7.1977                71.7762

                     52                     53                     54
                      A                      A                      A
 Frequencies --   1497.6567              1499.0077              1504.7263
 Red. masses --      1.0548                 1.1642                 1.2553
 Frc consts  --      1.3939                 1.5413                 1.6746
 IR Inten    --     58.0295                81.5089               220.1892

                     55                     56                     57
                      A                      A                      A
 Frequencies --   1514.7659              1527.9114              1532.4107
 Red. masses --      1.2398                 1.0997                 1.4240
 Frc consts  --      1.6761                 1.5126                 1.9702
 IR Inten    --      5.0235                 2.3130                99.3600

                     58                     59                     60
                      A                      A                      A
 Frequencies --   1709.5621              1768.2486              2881.6576
 Red. masses --      7.0201                 8.1323                 1.0737
 Frc consts  --     12.0882                14.9814                 5.2531
 IR Inten    --    149.4814                92.0835                46.2188

                     61                     62                     63
                      A                      A                      A
 Frequencies --   2895.2925              2938.6653              2970.2507
 Red. masses --      1.0740                 1.0575                 1.1023
 Frc consts  --      5.3044                 5.3807                 5.7297
 IR Inten    --    111.0861                33.2653                40.0004

                     64                     65                     66
                      A                      A                      A
 Frequencies --   2983.4767              3000.1684              3012.3511
 Red. masses --      1.0840                 1.0830                 1.0838
 Frc consts  --      5.6852                 5.7435                 5.7945
 IR Inten    --     56.7420                40.9087                40.2665

                     67                     68                     69
                      A                      A                      A
 Frequencies --   3031.3003              3033.9472              3083.3989
 Red. masses --      1.0385                 1.0363                 1.0981
 Frc consts  --      5.6223                 5.6202                 6.1512
 IR Inten    --     11.9476                26.2686                10.4969

                     70                     71                     72
                      A                      A                      A
 Frequencies --   3099.5535              3116.6933              3145.9208
 Red. masses --      1.0998                 1.1021                 1.1005
 Frc consts  --      6.2255                 6.3074                 6.4170
 IR Inten    --     38.9907                28.8340                 9.0823

                     73                     74                     75
                      A                      A                      A
 Frequencies --   3493.9539              3498.3645              3623.2846
 Red. masses --      1.0740                 1.0736                 1.0764
 Frc consts  --      7.7251                 7.7414                 8.3262
 IR Inten    --     25.7667                19.9795                31.3370

 - Thermochemistry -
 -------------------
 Temperature   298.150 Kelvin.  Pressure   1.00000 Atm.
 Atom     1 has atomic number  6 and mass  12.00000

 Molecular mass:   156.13750 amu.
 Principal axes and moments of inertia in atomic units:
                           1         2         3
     Eigenvalues --   395.426656106.287076364.82440
           X            0.99999  -0.00146   0.00322
           Y            0.00152   0.99983  -0.01819
           Z           -0.00320   0.01820   0.99983
 This molecule is an asymmetric top.
 Rotational symmetry number  1.
 Rotational temperatures (Kelvin)      0.21904     0.01418     0.01361
 Rotational constants (GHZ):           4.56404     0.29555     0.28355
 Zero-point vibrational energy     623458.4 (Joules/Mol)
                                  149.01014 (Kcal/Mol)
 Warning -- explicit consideration of  19 degrees of freedom as
           vibrations may cause significant error
 Vibrational temperatures:     31.06    67.98    85.42   114.18   138.95
          (Kelvin)            170.66   213.61   255.76   292.43   345.31
                              368.41   390.86   436.29   503.64   559.67
                              616.64   738.29   788.03   829.80  1013.50
                             1137.02  1178.39  1190.30  1262.84  1290.47
                             1342.21  1381.76  1466.01  1509.34  1541.81
                             1570.10  1579.63  1596.59  1646.32  1672.57
                             1691.00  1712.34  1739.67  1795.43  1803.68
                             1848.89  1878.16  1950.08  1982.84  2010.57
                             2021.16  2039.92  2064.94  2118.11  2125.75
                             2135.42  2154.79  2156.74  2164.97  2179.41
                             2198.32  2204.80  2459.68  2544.12  4146.06
                             4165.68  4228.08  4273.53  4292.56  4316.57
                             4334.10  4361.37  4365.17  4436.32  4459.57
                             4484.23  4526.28  5027.02  5033.37  5213.10

 Zero-point correction=                           0.237463 (Hartree/Particle)
 Thermal correction to Energy=                    0.251199
 Thermal correction to Enthalpy=                  0.252143
 Thermal correction to Gibbs Free Energy=         0.195442
 Sum of electronic and zero-point Energies=           -495.153625
 Sum of electronic and thermal Energies=              -495.139889
 Sum of electronic and thermal Enthalpies=            -495.138945
 Sum of electronic and thermal Free Energies=         -495.195645

                     E (Thermal)             CV                S
                      KCal/Mol        Cal/Mol-Kelvin    Cal/Mol-Kelvin
 Total                  157.630             47.802            119.336
 Electronic               0.000              0.000              0.000
 Translational            0.889              2.981             41.046
 Rotational               0.889              2.981             31.108
 Vibrational            155.852             41.840             47.182
 Vibration     1          0.593              1.985              6.483
 Vibration     2          0.595              1.979              4.929
 Vibration     3          0.597              1.974              4.478
 Vibration     4          0.600              1.963              3.907
 Vibration     5          0.603              1.952              3.522
 Vibration     6          0.609              1.934              3.123
 Vibration     7          0.618              1.904              2.692
 Vibration     8          0.628              1.870              2.352
 Vibration     9          0.639              1.835              2.104
 Vibration    10          0.657              1.779              1.803
 Vibration    11          0.666              1.753              1.689
 Vibration    12          0.675              1.725              1.586
 Vibration    13          0.695              1.668              1.399
 Vibration    14          0.727              1.575              1.166
 Vibration    15          0.757              1.494              1.004
 Vibration    16          0.790              1.408              0.863
 Vibration    17          0.868              1.221              0.626
 Vibration    18          0.903              1.145              0.549
 Vibration    19          0.933              1.082              0.491

                           ! Non-Optimized Parameters !
 Normal termination of Gaussian 16 at Tue Jun  1 15:48:23 2021.
