 Gaussian 16, Revision A.03,
 Gaussian 16:  ES64L-G16RevA.03 25-Dec-2016

 -----------------------------
 # opt freq b3lyp/6-31g(2df,p)
 -----------------------------

 -------------------
 Title Card Required
 -------------------
 Symbolic Z-matrix:
 Charge =  0 Multiplicity = 1

 SCF Done:  E(RB3LYP) =  -401.855640761     A.U. after   14 cycles
 SCF Done:  E(RB3LYP) =  -401.865415080     A.U. after   12 cycles
 SCF Done:  E(RB3LYP) =  -401.873984115     A.U. after   11 cycles
 SCF Done:  E(RB3LYP) =  -401.875620996     A.U. after   11 cycles
 SCF Done:  E(RB3LYP) =  -401.877832632     A.U. after   12 cycles
 SCF Done:  E(RB3LYP) =  -401.879705415     A.U. after   12 cycles
 SCF Done:  E(RB3LYP) =  -401.880137043     A.U. after   12 cycles
 SCF Done:  E(RB3LYP) =  -401.878639582     A.U. after   13 cycles
 SCF Done:  E(RB3LYP) =  -401.881381828     A.U. after   12 cycles
 SCF Done:  E(RB3LYP) =  -401.883756100     A.U. after   13 cycles
 SCF Done:  E(RB3LYP) =  -401.903725673     A.U. after   11 cycles
 SCF Done:  E(RB3LYP) =  -401.903759657     A.U. after   10 cycles
 SCF Done:  E(RB3LYP) =  -401.903791667     A.U. after   11 cycles
 SCF Done:  E(RB3LYP) =  -401.903841557     A.U. after    9 cycles
 SCF Done:  E(RB3LYP) =  -401.903835230     A.U. after   10 cycles
 SCF Done:  E(RB3LYP) =  -401.903865914     A.U. after   10 cycles
 SCF Done:  E(RB3LYP) =  -401.903866404     A.U. after    7 cycles
 SCF Done:  E(RB3LYP) =  -401.903866597     A.U. after    7 cycles
 SCF Done:  E(RB3LYP) =  -401.903866652     A.U. after    7 cycles
 Optimization completed.
    -- Stationary point found.
 Normal termination of Gaussian 16 at Wed Jun  2 00:24:19 2021.

 ----------------------------------------------------------------------
 #N Geom=AllCheck Guess=TCheck SCRF=Check GenChk RB3LYP/6-31G(2df,p) Fr
 eq
 ----------------------------------------------------------------------

 Structure from the checkpoint file:  "CCdNNpCCpCNC.chk"
 -------------------
 Title Card Required
 -------------------
 Charge =  0 Multiplicity = 1

                         Standard orientation:
 ---------------------------------------------------------------------
 Center     Atomic      Atomic             Coordinates (Angstroms)
 Number     Number       Type             X           Y           Z
 ---------------------------------------------------------------------
      1          6           0       -2.918970   -1.873669    0.091617
      2          6           0       -2.026970   -0.670451    0.155058
      3          7           0       -0.862604   -0.711747   -0.374359
      4          7           0       -0.026766    0.362093   -0.367366
      5          6           0       -0.233991    1.494443    0.532623
      6          6           0       -1.069621    2.617312   -0.091294
      7          6           0        1.332170   -0.002297   -0.693208
      8          7           0        2.063737   -0.504334    0.467493
      9          6           0        3.454079   -0.823365    0.169706
     10          1           0       -3.201410   -2.213323    1.096333
     11          1           0       -2.411734   -2.691239   -0.425149
     12          1           0       -3.854125   -1.649890   -0.437924
     13          1           0       -2.425630    0.216332    0.653516
     14          1           0        0.753372    1.869372    0.813782
     15          1           0       -0.698988    1.140732    1.464150
     16          1           0       -0.575266    3.014662   -0.982765
     17          1           0       -1.201145    3.437300    0.622741
     18          1           0       -2.060609    2.266113   -0.391445
     19          1           0        1.861663    0.885694   -1.061044
     20          1           0        1.272877   -0.728032   -1.518557
     21          1           0        1.583729   -1.336884    0.797960
     22          1           0        3.991113    0.094912   -0.095952
     23          1           0        3.591146   -1.537909   -0.661889
     24          1           0        3.934255   -1.241774    1.058856
 ---------------------------------------------------------------------

 SCF Done:  E(RB3LYP) =  -401.903866652     A.U. after    1 cycles

 The electronic state is 1-A.
 Alpha  occ. eigenvalues --  -14.35282 -14.34254 -14.30829 -10.22587 -10.20821
 Alpha  occ. eigenvalues --  -10.19856 -10.19762 -10.17421 -10.17396  -0.99542
 Alpha  occ. eigenvalues --   -0.89600  -0.82859  -0.75463  -0.71599  -0.66804
 Alpha  occ. eigenvalues --   -0.63562  -0.61451  -0.53458  -0.51173  -0.49785
 Alpha  occ. eigenvalues --   -0.46218  -0.44941  -0.43025  -0.41323  -0.40962
 Alpha  occ. eigenvalues --   -0.39736  -0.38251  -0.37561  -0.37392  -0.36932
 Alpha  occ. eigenvalues --   -0.36291  -0.34504  -0.32780  -0.25552  -0.22240
 Alpha  occ. eigenvalues --   -0.19880
 Alpha virt. eigenvalues --    0.02616   0.09042   0.10343   0.11962   0.13165
 Alpha virt. eigenvalues --    0.13520   0.14906   0.15537   0.15961   0.16522
 Alpha virt. eigenvalues --    0.17083   0.17405   0.18300   0.18632   0.18834

 Mulliken charges:
               1
     1  C   -0.427496
     2  C    0.001095
     3  N   -0.152651
     4  N   -0.000650
     5  C   -0.149238
     6  C   -0.369262
     7  C   -0.095637
     8  N   -0.281969
     9  C   -0.309494
    10  H    0.119590
    11  H    0.129756
    12  H    0.120573
    13  H    0.079975
    14  H    0.118828
    15  H    0.104070
    16  H    0.120094
    17  H    0.111639
    18  H    0.124547
    19  H    0.099316
    20  H    0.100471
    21  H    0.221789
    22  H    0.119721
    23  H    0.095589
    24  H    0.119346
 Sum of Mulliken charges =  -0.00000

 Dipole moment (field-independent basis, Debye):
    X=              0.1616    Y=              0.4398    Z=              0.4991  Tot=              0.6846
 Quadrupole moment (field-independent basis, Debye-Ang):
   XX=            -53.0480   YY=            -55.2814   ZZ=            -58.5194
   XY=             -0.9894   XZ=             -2.3779   YZ=             -1.0716

  Exact polarizability: 117.676   8.212  93.316  -5.540   0.476  71.345
 Approx polarizability: 154.367  14.164 123.572 -13.879  -0.082 110.461

                      1                      2                      3
                      A                      A                      A
 Frequencies --     46.6057                84.6013                95.5005
 Red. masses --      3.2252                 2.8462                 2.5671
 Frc consts  --      0.0041                 0.0120                 0.0138
 IR Inten    --      0.9508                 2.8258                 0.1277

                      4                      5                      6
                      A                      A                      A
 Frequencies --    120.5093               156.0924               189.2449
 Red. masses --      1.8550                 1.1414                 1.2802
 Frc consts  --      0.0159                 0.0164                 0.0270
 IR Inten    --      2.3743                 1.1025                 0.6473

                      7                      8                      9
                      A                      A                      A
 Frequencies --    214.2083               231.4945               248.7656
 Red. masses --      1.5421                 1.7417                 1.6346
 Frc consts  --      0.0417                 0.0550                 0.0596
 IR Inten    --      1.0314                 1.2637                 1.9584

                     10                     11                     12
                      A                      A                      A
 Frequencies --    294.7589               303.1288               338.8417
 Red. masses --      2.9141                 2.9222                 3.3189
 Frc consts  --      0.1492                 0.1582                 0.2245
 IR Inten    --      2.2931                 6.8476                 1.9445

                     13                     14                     15
                      A                      A                      A
 Frequencies --    401.3834               458.9319               520.6076
 Red. masses --      2.3061                 2.8274                 3.4801
 Frc consts  --      0.2189                 0.3509                 0.5557
 IR Inten    --      0.5548                 4.8734                16.1268

                     16                     17                     18
                      A                      A                      A
 Frequencies --    643.9143               792.5789               794.3244
 Red. masses --      3.1451                 1.2316                 2.5090
 Frc consts  --      0.7683                 0.4558                 0.9327
 IR Inten    --     17.2731                 7.7312                 2.5562

                     19                     20                     21
                      A                      A                      A
 Frequencies --    815.5768               877.6007               933.1929
 Red. masses --      1.2817                 1.3136                 1.7632
 Frc consts  --      0.5023                 0.5961                 0.9047
 IR Inten    --     81.9285                15.7476                 8.3145

                     22                     23                     24
                      A                      A                      A
 Frequencies --    973.2321               995.7284              1025.2780
 Red. masses --      1.8664                 2.5330                 1.6608
 Frc consts  --      1.0416                 1.4797                 1.0286
 IR Inten    --     13.7567                 3.8662                17.7401

                     25                     26                     27
                      A                      A                      A
 Frequencies --   1060.6941              1089.2890              1104.4776
 Red. masses --      1.4833                 2.0509                 1.8481
 Frc consts  --      0.9832                 1.4338                 1.3283
 IR Inten    --      0.9387                41.0170                61.3976

                     28                     29                     30
                      A                      A                      A
 Frequencies --   1119.7726              1137.4167              1151.3297
 Red. masses --      2.6760                 2.2399                 1.9926
 Frc consts  --      1.9769                 1.7073                 1.5562
 IR Inten    --     46.1367                34.0292                 5.6725

                     31                     32                     33
                      A                      A                      A
 Frequencies --   1184.2782              1245.4760              1255.0062
 Red. masses --      1.7960                 1.8708                 2.1883
 Frc consts  --      1.4841                 1.7098                 2.0307
 IR Inten    --     26.0192                40.0375                31.1909

                     34                     35                     36
                      A                      A                      A
 Frequencies --   1333.7644              1358.5284              1371.5476
 Red. masses --      1.3390                 1.3661                 1.3038
 Frc consts  --      1.4035                 1.4855                 1.4451
 IR Inten    --      1.1474                33.0760                18.8668

                     37                     38                     39
                      A                      A                      A
 Frequencies --   1392.3235              1405.5780              1409.6448
 Red. masses --      1.3433                 1.2368                 1.2742
 Frc consts  --      1.5342                 1.4396                 1.4918
 IR Inten    --     29.9191                20.7336                 4.4929

                     40                     41                     42
                      A                      A                      A
 Frequencies --   1422.2818              1457.9697              1478.4158
 Red. masses --      1.5415                 1.1692                 1.1924
 Frc consts  --      1.8373                 1.4643                 1.5355
 IR Inten    --     23.8667                 1.7152                30.1232

                     43                     44                     45
                      A                      A                      A
 Frequencies --   1479.1386              1483.1117              1486.6163
 Red. masses --      1.0461                 1.0631                 1.0693
 Frc consts  --      1.3485                 1.3778                 1.3923
 IR Inten    --      6.1979                 2.7503                13.5556

                     46                     47                     48
                      A                      A                      A
 Frequencies --   1490.1524              1493.5006              1501.7654
 Red. masses --      1.0475                 1.0761                 1.0690
 Frc consts  --      1.3705                 1.4143                 1.4205
 IR Inten    --      2.6881                 5.8286                 6.1239

                     49                     50                     51
                      A                      A                      A
 Frequencies --   1508.8977              1518.0750              1697.5913
 Red. masses --      1.0793                 1.0551                 6.8818
 Frc consts  --      1.4478                 1.4326                11.6847
 IR Inten    --      7.7831                 6.6302                15.7431

                     52                     53                     54
                      A                      A                      A
 Frequencies --   2943.3103              2987.1103              3000.8790
 Red. masses --      1.0590                 1.0629                 1.0707
 Frc consts  --      5.4053                 5.5877                 5.6806
 IR Inten    --     91.3878                64.9226                22.7162

                     55                     56                     57
                      A                      A                      A
 Frequencies --   3014.8147              3038.5497              3042.4775
 Red. masses --      1.0389                 1.0359                 1.0992
 Frc consts  --      5.5635                 5.6350                 5.9949
 IR Inten    --     48.1703                21.2539                28.6056

                     58                     59                     60
                      A                      A                      A
 Frequencies --   3051.1675              3058.9165              3083.2140
 Red. masses --      1.0750                 1.0990                 1.0845
 Frc consts  --      5.8966                 6.0585                 6.0743
 IR Inten    --     40.5903                23.4863                40.3936

                     61                     62                     63
                      A                      A                      A
 Frequencies --   3089.3981              3102.2634              3107.9322
 Red. masses --      1.0918                 1.1000                 1.1010
 Frc consts  --      6.1398                 6.2371                 6.2657
 IR Inten    --      4.9963                28.0562                28.0382

                     64                     65                     66
                      A                      A                      A
 Frequencies --   3120.7471              3129.8031              3506.0015
 Red. masses --      1.1008                 1.0981                 1.0735
 Frc consts  --      6.3167                 6.3376                 7.7748
 IR Inten    --     29.1461                18.5150                 0.5564

 - Thermochemistry -
 -------------------
 Temperature   298.150 Kelvin.  Pressure   1.00000 Atm.
 Atom     1 has atomic number  6 and mass  12.00000

 Molecular mass:   129.12660 amu.
 Principal axes and moments of inertia in atomic units:
                           1         2         3
     Eigenvalues --   925.722331878.242412597.32836
           X            0.99995  -0.00718  -0.00722
           Y            0.00717   0.99997  -0.00058
           Z            0.00722   0.00053   0.99997
 This molecule is an asymmetric top.
 Rotational symmetry number  1.
 Warning -- assumption of classical behavior for rotation
           may cause significant error
 Rotational temperatures (Kelvin)      0.09356     0.04611     0.03335
 Rotational constants (GHZ):           1.94955     0.96087     0.69485
 Zero-point vibrational energy     565052.1 (Joules/Mol)
                                  135.05069 (Kcal/Mol)
 Warning -- explicit consideration of  15 degrees of freedom as
           vibrations may cause significant error
 Vibrational temperatures:     67.06   121.72   137.40   173.39   224.58
          (Kelvin)            272.28   308.20   333.07   357.92   424.09
                              436.13   487.52   577.50   660.30   749.04
                              926.45  1140.34  1142.86  1173.43  1262.67
                             1342.66  1400.26  1432.63  1475.15  1526.10
                             1567.24  1589.10  1611.10  1636.49  1656.51
                             1703.91  1791.96  1805.67  1918.99  1954.62
                             1973.35  2003.24  2022.31  2028.16  2046.35
                             2097.69  2127.11  2128.15  2133.87  2138.91
                             2144.00  2148.81  2160.71  2170.97  2184.17
                             2442.46  4234.77  4297.79  4317.60  4337.65
                             4371.80  4377.45  4389.95  4401.10  4436.06
                             4444.95  4463.47  4471.62  4490.06  4503.09
                             5044.35

 Zero-point correction=                           0.215217 (Hartree/Particle)
 Thermal correction to Energy=                    0.226726
 Thermal correction to Enthalpy=                  0.227670
 Thermal correction to Gibbs Free Energy=         0.177835
 Sum of electronic and zero-point Energies=           -401.688650
 Sum of electronic and thermal Energies=              -401.677141
 Sum of electronic and thermal Enthalpies=            -401.676197
 Sum of electronic and thermal Free Energies=         -401.726031

                     E (Thermal)             CV                S
                      KCal/Mol        Cal/Mol-Kelvin    Cal/Mol-Kelvin
 Total                  142.272             40.687            104.885
 Electronic               0.000              0.000              0.000
 Translational            0.889              2.981             40.480
 Rotational               0.889              2.981             29.892
 Vibrational            140.495             34.726             34.514
 Vibration     1          0.595              1.979              4.956
 Vibration     2          0.601              1.960              3.781
 Vibration     3          0.603              1.952              3.544
 Vibration     4          0.609              1.932              3.092
 Vibration     5          0.620              1.896              2.597
 Vibration     6          0.633              1.855              2.235
 Vibration     7          0.644              1.819              2.008
 Vibration     8          0.653              1.793              1.867
 Vibration     9          0.662              1.765              1.739
 Vibration    10          0.689              1.684              1.446
 Vibration    11          0.695              1.668              1.400
 Vibration    12          0.719              1.598              1.218
 Vibration    13          0.767              1.467              0.958
 Vibration    14          0.817              1.341              0.769
 Vibration    15          0.876              1.204              0.609

                           ! Non-Optimized Parameters !
 Normal termination of Gaussian 16 at Wed Jun  2 00:56:30 2021.
