 Gaussian 16, Revision A.03,
 Gaussian 16:  ES64L-G16RevA.03 25-Dec-2016

 -----------------------------
 # opt freq b3lyp/6-31g(2df,p)
 -----------------------------

 -------------------
 Title Card Required
 -------------------
 Symbolic Z-matrix:
 Charge =  0 Multiplicity = 1

 SCF Done:  E(RB3LYP) =  -454.796422691     A.U. after   15 cycles
 SCF Done:  E(RB3LYP) =  -454.824809841     A.U. after   12 cycles
 SCF Done:  E(RB3LYP) =  -454.828255250     A.U. after   13 cycles
 SCF Done:  E(RB3LYP) =  -454.831310780     A.U. after   13 cycles
 SCF Done:  E(RB3LYP) =  -454.833386746     A.U. after   13 cycles
 SCF Done:  E(RB3LYP) =  -454.834201678     A.U. after   13 cycles
 SCF Done:  E(RB3LYP) =  -454.835097238     A.U. after   13 cycles
 SCF Done:  E(RB3LYP) =  -454.836954795     A.U. after   14 cycles
 SCF Done:  E(RB3LYP) =  -454.838581627     A.U. after   12 cycles
 SCF Done:  E(RB3LYP) =  -454.842304265     A.U. after   14 cycles
 SCF Done:  E(RB3LYP) =  -454.843091631     A.U. after   13 cycles
 SCF Done:  E(RB3LYP) =  -454.842951056     A.U. after   12 cycles
 SCF Done:  E(RB3LYP) =  -454.844027195     A.U. after   12 cycles
 SCF Done:  E(RB3LYP) =  -454.844092813     A.U. after   11 cycles
 SCF Done:  E(RB3LYP) =  -454.844162232     A.U. after   10 cycles
 SCF Done:  E(RB3LYP) =  -454.844179358     A.U. after   10 cycles
 SCF Done:  E(RB3LYP) =  -454.844187282     A.U. after    9 cycles
 SCF Done:  E(RB3LYP) =  -454.844188272     A.U. after    8 cycles
 SCF Done:  E(RB3LYP) =  -454.844188627     A.U. after    7 cycles
 Optimization completed.
    -- Stationary point found.
 Normal termination of Gaussian 16 at Mon May 31 22:05:08 2021.

 ----------------------------------------------------------------------
 #N Geom=AllCheck Guess=TCheck SCRF=Check GenChk RB3LYP/6-31G(2df,p) Fr
 eq
 ----------------------------------------------------------------------

 Structure from the checkpoint file:  "CCdNNCpCNpCCtN.chk"
 -------------------
 Title Card Required
 -------------------
 Charge =  0 Multiplicity = 1

                         Standard orientation:
 ---------------------------------------------------------------------
 Center     Atomic      Atomic             Coordinates (Angstroms)
 Number     Number       Type             X           Y           Z
 ---------------------------------------------------------------------
      1          6           0       -3.990216   -0.873749   -0.317201
      2          6           0       -2.867813    0.046526    0.044648
      3          7           0       -1.658950   -0.356988    0.056036
      4          7           0       -0.681327    0.521066    0.459752
      5          6           0        0.635651    0.217794   -0.081906
      6          6           0        1.565830    1.390646    0.239479
      7          7           0        1.034060    2.623134   -0.355407
      8          6           0        1.129223   -1.107682    0.535077
      9          6           0        2.391321   -1.565287   -0.037462
     10          7           0        3.392769   -1.909618   -0.501002
     11          1           0       -4.703830   -0.970317    0.510745
     12          1           0       -3.601624   -1.863819   -0.563923
     13          1           0       -4.554441   -0.489424   -1.175871
     14          1           0       -3.122364    1.082306    0.309232
     15          1           0       -0.900706    1.505843    0.304962
     16          1           0        0.598593    0.086621   -1.176827
     17          1           0        2.584599    1.134833   -0.085735
     18          1           0        1.589751    1.526552    1.327164
     19          1           0        1.191546    2.620203   -1.359237
     20          1           0        1.529544    3.429719    0.009201
     21          1           0        0.358315   -1.865933    0.370127
     22          1           0        1.240775   -0.989216    1.618712
 ---------------------------------------------------------------------

 SCF Done:  E(RB3LYP) =  -454.844188627     A.U. after    1 cycles

 The electronic state is 1-A.
 Alpha  occ. eigenvalues --  -14.35404 -14.35359 -14.32968 -14.32108 -10.23287
 Alpha  occ. eigenvalues --  -10.22381 -10.22149 -10.21494 -10.21467 -10.18548
 Alpha  occ. eigenvalues --   -0.99626  -0.90310  -0.89439  -0.84409  -0.78039
 Alpha  occ. eigenvalues --   -0.72398  -0.68772  -0.60408  -0.58531  -0.53437
 Alpha  occ. eigenvalues --   -0.51770  -0.49301  -0.48195  -0.45920  -0.44355
 Alpha  occ. eigenvalues --   -0.42865  -0.41675  -0.40129  -0.38549  -0.38299
 Alpha  occ. eigenvalues --   -0.37484  -0.35090  -0.34283  -0.31907  -0.31707
 Alpha  occ. eigenvalues --   -0.27518  -0.25677  -0.21939
 Alpha virt. eigenvalues --    0.00892   0.03885   0.04764   0.06858   0.10333
 Alpha virt. eigenvalues --    0.10912   0.11395   0.12050   0.14954   0.15431
 Alpha virt. eigenvalues --    0.16422   0.16474   0.16627   0.17021   0.18538

 Mulliken charges:
               1
     1  C   -0.432161
     2  C    0.025959
     3  N   -0.114751
     4  N   -0.271264
     5  C    0.084863
     6  C   -0.192029
     7  N   -0.518887
     8  C   -0.336157
     9  C    0.261057
    10  N   -0.320911
    11  H    0.128563
    12  H    0.135932
    13  H    0.127247
    14  H    0.075922
    15  H    0.235489
    16  H    0.083211
    17  H    0.117126
    18  H    0.114999
    19  H    0.235576
    20  H    0.238321
    21  H    0.172457
    22  H    0.149437
 Sum of Mulliken charges =  -0.00000

 Dipole moment (field-independent basis, Debye):
    X=             -2.6640    Y=              3.4436    Z=              0.5081  Tot=              4.3833
 Quadrupole moment (field-independent basis, Debye-Ang):
   XX=            -68.1996   YY=            -59.1246   ZZ=            -59.4229
   XY=             11.5480   XZ=              3.8428   YZ=             -3.4044

  Exact polarizability: 131.844  -0.693  88.048  -1.411   2.520  67.704
 Approx polarizability: 176.049  -8.191 119.980  -6.011   6.421 107.644

                      1                      2                      3
                      A                      A                      A
 Frequencies --     57.5676                70.0861               103.6886
 Red. masses --      4.8522                 3.5448                 3.2835
 Frc consts  --      0.0095                 0.0103                 0.0208
 IR Inten    --      2.4286                 0.1085                 6.8197

                      4                      5                      6
                      A                      A                      A
 Frequencies --    120.7894               146.6331               175.8780
 Red. masses --      1.6570                 2.8698                 2.8981
 Frc consts  --      0.0142                 0.0364                 0.0528
 IR Inten    --      5.2155                10.1533                 2.6833

                      7                      8                      9
                      A                      A                      A
 Frequencies --    208.7038               230.7441               262.6553
 Red. masses --      1.6073                 2.9593                 1.3077
 Frc consts  --      0.0412                 0.0928                 0.0532
 IR Inten    --      2.0767                 0.9806                15.7600

                     10                     11                     12
                      A                      A                      A
 Frequencies --    283.6108               337.8637               399.3331
 Red. masses --      3.2115                 2.9295                 2.8911
 Frc consts  --      0.1522                 0.1970                 0.2716
 IR Inten    --     20.3039                11.9308                 1.3336

                     13                     14                     15
                      A                      A                      A
 Frequencies --    409.8164               417.9069               527.4171
 Red. masses --      3.9755                 3.5941                 3.2529
 Frc consts  --      0.3934                 0.3698                 0.5331
 IR Inten    --      2.3750                 6.5123                14.2849

                     16                     17                     18
                      A                      A                      A
 Frequencies --    543.1828               622.0785               747.9165
 Red. masses --      3.6270                 3.5982                 1.5821
 Frc consts  --      0.6305                 0.8204                 0.5214
 IR Inten    --     16.1159                 6.0656                63.7328

                     19                     20                     21
                      A                      A                      A
 Frequencies --    836.9873               857.9490               901.9210
 Red. masses --      1.7904                 1.4294                 1.3047
 Frc consts  --      0.7390                 0.6199                 0.6253
 IR Inten    --     31.3698                58.9650                11.9718

                     22                     23                     24
                      A                      A                      A
 Frequencies --    937.1780               947.6537               969.8854
 Red. masses --      1.9692                 1.8610                 2.5402
 Frc consts  --      1.0190                 0.9847                 1.4079
 IR Inten    --      9.4644                 8.4845                17.9605

                     25                     26                     27
                      A                      A                      A
 Frequencies --   1015.4920              1055.6832              1071.2039
 Red. masses --      1.5929                 3.7702                 1.5363
 Frc consts  --      0.9678                 2.4756                 1.0387
 IR Inten    --      8.0650                22.9394                 0.6962

                     28                     29                     30
                      A                      A                      A
 Frequencies --   1092.2317              1127.6263              1154.6103
 Red. masses --      2.4786                 2.1581                 1.3342
 Frc consts  --      1.7422                 1.6168                 1.0479
 IR Inten    --     27.9055                 1.9090                 0.6488

                     31                     32                     33
                      A                      A                      A
 Frequencies --   1171.3314              1198.6835              1255.6154
 Red. masses --      3.7225                 2.1067                 1.3727
 Frc consts  --      3.0091                 1.7835                 1.2751
 IR Inten    --    115.0226                 6.8038                 8.9805

                     34                     35                     36
                      A                      A                      A
 Frequencies --   1291.7166              1327.0790              1348.0816
 Red. masses --      1.3351                 1.1643                 1.2286
 Frc consts  --      1.3125                 1.2081                 1.3155
 IR Inten    --      2.0811                 2.8505                 4.8837

                     37                     38                     39
                      A                      A                      A
 Frequencies --   1378.0498              1392.6996              1411.3454
 Red. masses --      1.3167                 1.4002                 1.3245
 Frc consts  --      1.4733                 1.6001                 1.5544
 IR Inten    --      1.7758                38.8088                 2.9611

                     40                     41                     42
                      A                      A                      A
 Frequencies --   1431.6866              1469.2468              1477.5079
 Red. masses --      1.5035                 1.0912                 1.0453
 Frc consts  --      1.8158                 1.3879                 1.3445
 IR Inten    --      5.6380                 9.6082                 5.6062

                     43                     44                     45
                      A                      A                      A
 Frequencies --   1481.2695              1500.5835              1506.4282
 Red. masses --      1.0596                 1.0857                 1.3322
 Frc consts  --      1.3698                 1.4404                 1.7813
 IR Inten    --      5.3404                 5.0126                58.0505

                     46                     47                     48
                      A                      A                      A
 Frequencies --   1658.4269              1722.4917              2359.2202
 Red. masses --      1.0888                 7.4652                12.6042
 Frc consts  --      1.7643                13.0498                41.3334
 IR Inten    --     26.0727                 1.1015                14.0934

                     49                     50                     51
                      A                      A                      A
 Frequencies --   2954.5695              2999.6594              3015.1114
 Red. masses --      1.0819                 1.0650                 1.0680
 Frc consts  --      5.5645                 5.6461                 5.7206
 IR Inten    --     41.5411                44.6067                45.5106

                     52                     53                     54
                      A                      A                      A
 Frequencies --   3024.6743              3053.4515              3064.2837
 Red. masses --      1.0544                 1.0621                 1.0963
 Frc consts  --      5.6835                 5.8342                 6.0648
 IR Inten    --     32.5799                 2.9436                27.1337

                     55                     56                     57
                      A                      A                      A
 Frequencies --   3068.1014              3104.0360              3134.3227
 Red. masses --      1.0988                 1.0994                 1.0988
 Frc consts  --      6.0942                 6.2412                 6.3597
 IR Inten    --     19.0830                 2.5763                12.5530

                     58                     59                     60
                      A                      A                      A
 Frequencies --   3439.7962              3497.1371              3577.9516
 Red. masses --      1.0734                 1.0502                 1.0919
 Frc consts  --      7.4832                 7.5676                 8.2355
 IR Inten    --     19.7301                 0.4883                 1.9273

 - Thermochemistry -
 -------------------
 Temperature   298.150 Kelvin.  Pressure   1.00000 Atm.
 Atom     1 has atomic number  6 and mass  12.00000

 Molecular mass:   140.10620 amu.
 Principal axes and moments of inertia in atomic units:
                           1         2         3
     Eigenvalues --  1027.569652626.083703484.61045
           X            0.99894   0.04531   0.00766
           Y           -0.04525   0.99894  -0.00786
           Z           -0.00801   0.00750   0.99994
 This molecule is an asymmetric top.
 Rotational symmetry number  1.
 Warning -- assumption of classical behavior for rotation
           may cause significant error
 Rotational temperatures (Kelvin)      0.08429     0.03298     0.02486
 Rotational constants (GHZ):           1.75632     0.68724     0.51792
 Zero-point vibrational energy     490163.0 (Joules/Mol)
                                  117.15177 (Kcal/Mol)
 Warning -- explicit consideration of  16 degrees of freedom as
           vibrations may cause significant error
 Vibrational temperatures:     82.83   100.84   149.18   173.79   210.97
          (Kelvin)            253.05   300.28   331.99   377.90   408.05
                              486.11   574.55   589.63   601.27   758.84
                              781.52   895.03  1076.09  1204.24  1234.40
                             1297.66  1348.39  1363.46  1395.45  1461.07
                             1518.89  1541.22  1571.48  1622.40  1661.23
                             1685.28  1724.64  1806.55  1858.49  1909.37
                             1939.59  1982.71  2003.78  2030.61  2059.88
                             2113.92  2125.80  2131.22  2159.00  2167.41
                             2386.11  2478.28  3394.39  4250.97  4315.84
                             4338.07  4351.83  4393.24  4408.82  4414.31
                             4466.02  4509.59  4949.10  5031.60  5147.87

 Zero-point correction=                           0.186693 (Hartree/Particle)
 Thermal correction to Energy=                    0.198319
 Thermal correction to Enthalpy=                  0.199264
 Thermal correction to Gibbs Free Energy=         0.148864
 Sum of electronic and zero-point Energies=           -454.657495
 Sum of electronic and thermal Energies=              -454.645869
 Sum of electronic and thermal Enthalpies=            -454.644925
 Sum of electronic and thermal Free Energies=         -454.695325

                     E (Thermal)             CV                S
                      KCal/Mol        Cal/Mol-Kelvin    Cal/Mol-Kelvin
 Total                  124.447             41.273            106.075
 Electronic               0.000              0.000              0.000
 Translational            0.889              2.981             40.723
 Rotational               0.889              2.981             30.620
 Vibrational            122.670             35.311             34.732
 Vibration     1          0.596              1.974              4.539
 Vibration     2          0.598              1.968              4.151
 Vibration     3          0.605              1.946              3.384
 Vibration     4          0.609              1.932              3.088
 Vibration     5          0.617              1.906              2.715
 Vibration     6          0.628              1.872              2.372
 Vibration     7          0.642              1.827              2.055
 Vibration     8          0.652              1.794              1.873
 Vibration     9          0.670              1.741              1.644
 Vibration    10          0.682              1.704              1.512
 Vibration    11          0.718              1.600              1.222
 Vibration    12          0.765              1.472              0.965
 Vibration    13          0.774              1.449              0.927
 Vibration    14          0.781              1.431              0.899
 Vibration    15          0.882              1.189              0.593
 Vibration    16          0.898              1.155              0.558

                           ! Non-Optimized Parameters !
 Normal termination of Gaussian 16 at Mon May 31 22:52:18 2021.
