 Gaussian 16, Revision A.03,
 Gaussian 16:  ES64L-G16RevA.03 25-Dec-2016

 -----------------------------
 # opt freq b3lyp/6-31g(2df,p)
 -----------------------------

 -------------------
 Title Card Required
 -------------------
 Symbolic Z-matrix:
 Charge =  0 Multiplicity = 1

 SCF Done:  E(RB3LYP) =  -469.589203070     A.U. after   15 cycles
 SCF Done:  E(RB3LYP) =  -469.621355917     A.U. after   13 cycles
 SCF Done:  E(RB3LYP) =  -469.623798004     A.U. after   12 cycles
 SCF Done:  E(RB3LYP) =  -469.626414410     A.U. after   12 cycles
 SCF Done:  E(RB3LYP) =  -469.629497668     A.U. after   15 cycles
 SCF Done:  E(RB3LYP) =  -469.631391356     A.U. after   12 cycles
 SCF Done:  E(RB3LYP) =  -469.632080496     A.U. after   12 cycles
 SCF Done:  E(RB3LYP) =  -469.632307034     A.U. after   12 cycles
 SCF Done:  E(RB3LYP) =  -469.632458092     A.U. after   12 cycles
 SCF Done:  E(RB3LYP) =  -469.632546322     A.U. after   12 cycles
 SCF Done:  E(RB3LYP) =  -469.636066087     A.U. after   12 cycles
 SCF Done:  E(RB3LYP) =  -469.636230345     A.U. after   12 cycles
 SCF Done:  E(RB3LYP) =  -469.636307194     A.U. after   12 cycles
 SCF Done:  E(RB3LYP) =  -469.636405687     A.U. after   11 cycles
 SCF Done:  E(RB3LYP) =  -469.636417581     A.U. after   10 cycles
 SCF Done:  E(RB3LYP) =  -469.636423589     A.U. after    9 cycles
 SCF Done:  E(RB3LYP) =  -469.636424478     A.U. after    9 cycles
 SCF Done:  E(RB3LYP) =  -469.636424704     A.U. after    8 cycles
 SCF Done:  E(RB3LYP) =  -469.636424722     A.U. after    7 cycles
 Optimization completed.
    -- Stationary point found.
 Normal termination of Gaussian 16 at Mon May 31 20:40:43 2021.

 ----------------------------------------------------------------------
 #N Geom=AllCheck Guess=TCheck SCRF=Check GenChk RB3LYP/6-31G(2df,p) Fr
 eq
 ----------------------------------------------------------------------

 Structure from the checkpoint file:  "CCdNNdCNpNpCCtN.chk"
 -------------------
 Title Card Required
 -------------------
 Charge =  0 Multiplicity = 1

                         Standard orientation:
 ---------------------------------------------------------------------
 Center     Atomic      Atomic             Coordinates (Angstroms)
 Number     Number       Type             X           Y           Z
 ---------------------------------------------------------------------
      1          6           0        4.450616   -0.647337    0.049658
      2          6           0        3.144258    0.010173    0.350723
      3          7           0        2.097311   -0.263924   -0.325840
      4          7           0        0.966900    0.446687    0.104662
      5          6           0       -0.065784    0.119439   -0.582183
      6          7           0       -1.276231    0.729650   -0.383524
      7          7           0       -1.449650    1.606603    0.710430
      8          6           0       -2.499075    0.109283   -0.846870
      9          6           0       -3.050310   -0.886751    0.094056
     10          7           0       -3.462069   -1.664047    0.842754
     11          1           0        4.820053   -1.194035    0.926051
     12          1           0        5.213888    0.101139   -0.196636
     13          1           0        4.346474   -1.341152   -0.786556
     14          1           0        3.099694    0.735933    1.169492
     15          1           0       -0.034995   -0.629924   -1.375261
     16          1           0       -0.884322    2.431396    0.517756
     17          1           0       -1.013611    1.174106    1.527068
     18          1           0       -2.311407   -0.380474   -1.807579
     19          1           0       -3.247832    0.889397   -1.006010
 ---------------------------------------------------------------------

 SCF Done:  E(RB3LYP) =  -469.636424722     A.U. after    1 cycles

 The electronic state is 1-A.
 Alpha  occ. eigenvalues --  -14.40421 -14.36592 -14.34504 -14.33830 -14.33784
 Alpha  occ. eigenvalues --  -10.27954 -10.25862 -10.22765 -10.21811 -10.18661
 Alpha  occ. eigenvalues --   -1.03257  -0.97762  -0.90948  -0.85500  -0.83664
 Alpha  occ. eigenvalues --   -0.75312  -0.71274  -0.61839  -0.57018  -0.54818
 Alpha  occ. eigenvalues --   -0.52945  -0.51564  -0.50386  -0.47498  -0.45716
 Alpha  occ. eigenvalues --   -0.42740  -0.40350  -0.39346  -0.39034  -0.36801
 Alpha  occ. eigenvalues --   -0.34344  -0.33689  -0.33456  -0.31808  -0.29307
 Alpha  occ. eigenvalues --   -0.23422  -0.22842
 Alpha virt. eigenvalues --   -0.01925   0.01687   0.02844   0.04791   0.07401
 Alpha virt. eigenvalues --    0.09553   0.10682   0.11942   0.14010   0.15009
 Alpha virt. eigenvalues --    0.15865   0.16611   0.16714   0.17041   0.17910

 Mulliken charges:
               1
     1  C   -0.440056
     2  C    0.075833
     3  N   -0.145020
     4  N   -0.268759
     5  C    0.149853
     6  N   -0.068099
     7  N   -0.461993
     8  C   -0.285212
     9  C    0.268860
    10  N   -0.295265
    11  H    0.133737
    12  H    0.132098
    13  H    0.137752
    14  H    0.091068
    15  H    0.118534
    16  H    0.261969
    17  H    0.259436
    18  H    0.163457
    19  H    0.171807
 Sum of Mulliken charges =  -0.00000

 Dipole moment (field-independent basis, Debye):
    X=              1.7188    Y=              2.2801    Z=             -1.9334  Tot=              3.4484
 Quadrupole moment (field-independent basis, Debye-Ang):
   XX=            -59.6291   YY=            -61.3389   ZZ=            -56.6017
   XY=             -6.7054   XZ=             11.1955   YZ=              3.3415

  Exact polarizability: 148.533  -1.169  71.917   7.964   2.378  70.586
 Approx polarizability: 190.173   3.021 110.540  17.975  -1.485 116.468

                      1                      2                      3
                      A                      A                      A
 Frequencies --     32.7708                68.8178                99.3076
 Red. masses --      6.2595                 2.6675                 4.8598
 Frc consts  --      0.0040                 0.0074                 0.0282
 IR Inten    --      1.4073                 4.6169                 2.6106

                      4                      5                      6
                      A                      A                      A
 Frequencies --    117.9635               129.6314               184.0103
 Red. masses --      3.4952                 2.2497                 1.2414
 Frc consts  --      0.0287                 0.0223                 0.0248
 IR Inten    --      2.2208                 0.3266                36.5537

                      7                      8                      9
                      A                      A                      A
 Frequencies --    209.0840               246.8154               265.1773
 Red. masses --      1.3529                 3.3273                 3.5278
 Frc consts  --      0.0348                 0.1194                 0.1462
 IR Inten    --      4.6599                15.9448                 7.9170

                     10                     11                     12
                      A                      A                      A
 Frequencies --    330.7848               341.8522               375.9506
 Red. masses --      3.4683                 4.8897                 2.6137
 Frc consts  --      0.2236                 0.3367                 0.2177
 IR Inten    --     10.0653                 2.3338                 0.5288

                     13                     14                     15
                      A                      A                      A
 Frequencies --    412.9315               462.9427               500.2146
 Red. masses --      4.6023                 3.7239                 3.8914
 Frc consts  --      0.4624                 0.4702                 0.5737
 IR Inten    --     12.1503                19.2153                 7.7651

                     16                     17                     18
                      A                      A                      A
 Frequencies --    583.5223               714.1152               884.3136
 Red. masses --      5.8179                 4.6688                 3.9753
 Frc consts  --      1.1672                 1.4028                 1.8316
 IR Inten    --      8.9609                 9.6590                 7.8711

                     19                     20                     21
                      A                      A                      A
 Frequencies --    904.3098               911.8180               941.2048
 Red. masses --      3.9939                 1.2889                 1.9895
 Frc consts  --      1.9243                 0.6314                 1.0384
 IR Inten    --     14.1948                14.0981                 5.9996

                     22                     23                     24
                      A                      A                      A
 Frequencies --    981.2515               998.2034              1006.5603
 Red. masses --      1.8323                 1.5428                 1.9245
 Frc consts  --      1.0394                 0.9057                 1.1488
 IR Inten    --      0.6711                50.6168               126.9455

                     25                     26                     27
                      A                      A                      A
 Frequencies --   1075.8175              1087.8182              1155.7690
 Red. masses --      4.2269                 1.6064                 2.2034
 Frc consts  --      2.8824                 1.1200                 1.7342
 IR Inten    --     14.3336                 0.3709                 9.1003

                     28                     29                     30
                      A                      A                      A
 Frequencies --   1221.9161              1280.5593              1345.3477
 Red. masses --      1.4065                 2.0108                 1.4535
 Frc consts  --      1.2373                 1.9427                 1.5500
 IR Inten    --     65.5453                28.0453                 2.8746

                     31                     32                     33
                      A                      A                      A
 Frequencies --   1356.1446              1368.7544              1376.0698
 Red. masses --      1.1506                 1.4955                 1.3074
 Frc consts  --      1.2468                 1.6508                 1.4586
 IR Inten    --      4.3666                27.9807                46.3350

                     34                     35                     36
                      A                      A                      A
 Frequencies --   1403.8027              1428.3582              1449.1373
 Red. masses --      1.4164                 2.3205                 1.1392
 Frc consts  --      1.6446                 2.7893                 1.4096
 IR Inten    --     19.0605                47.8742                11.7252

                     37                     38                     39
                      A                      A                      A
 Frequencies --   1474.4779              1477.5104              1671.0972
 Red. masses --      1.0675                 1.0452                 6.4317
 Frc consts  --      1.3673                 1.3444                10.5823
 IR Inten    --     10.4285                 5.8792               266.9634

                     40                     41                     42
                      A                      A                      A
 Frequencies --   1700.7432              1722.9981              2359.8865
 Red. masses --      1.1247                 6.9634                12.5860
 Frc consts  --      1.9167                12.1798                41.2972
 IR Inten    --     45.5022               239.4218                 0.4317

                     43                     44                     45
                      A                      A                      A
 Frequencies --   3024.4372              3063.3805              3069.2176
 Red. masses --      1.0386                 1.0593                 1.0864
 Frc consts  --      5.5972                 5.8569                 6.0296
 IR Inten    --     24.0410                 8.4418                28.7993

                     46                     47                     48
                      A                      A                      A
 Frequencies --   3073.1448              3110.3732              3115.1288
 Red. masses --      1.0983                 1.0958                 1.0966
 Frc consts  --      6.1113                 6.2462                 6.2699
 IR Inten    --     14.5218                 7.8570                 8.1925

                     49                     50                     51
                      A                      A                      A
 Frequencies --   3138.7151              3433.7167              3511.7739
 Red. masses --      1.0993                 1.0521                 1.0885
 Frc consts  --      6.3808                 7.3084                 7.9095
 IR Inten    --     12.1042                 5.8612                 4.8889

 - Thermochemistry -
 -------------------
 Temperature   298.150 Kelvin.  Pressure   1.00000 Atm.
 Atom     1 has atomic number  6 and mass  12.00000

 Molecular mass:   139.08580 amu.
 Principal axes and moments of inertia in atomic units:
                           1         2         3
     Eigenvalues --   570.677253503.583443743.11262
           X            0.99980  -0.01757   0.00911
           Y            0.01694   0.99778   0.06442
           Z           -0.01022  -0.06425   0.99788
 This molecule is an asymmetric top.
 Rotational symmetry number  1.
 Warning -- assumption of classical behavior for rotation
           may cause significant error
 Rotational temperatures (Kelvin)      0.15177     0.02472     0.02314
 Rotational constants (GHZ):           3.16246     0.51511     0.48215
 Zero-point vibrational energy     395961.8 (Joules/Mol)
                                   94.63715 (Kcal/Mol)
 Warning -- explicit consideration of  16 degrees of freedom as
           vibrations may cause significant error
 Vibrational temperatures:     47.15    99.01   142.88   169.72   186.51
          (Kelvin)            264.75   300.83   355.11   381.53   475.93
                              491.85   540.91   594.12   666.07   719.70
                              839.56  1027.45  1272.33  1301.10  1311.90
                             1354.18  1411.80  1436.19  1448.22  1547.86
                             1565.13  1662.89  1758.06  1842.44  1935.66
                             1951.19  1969.33  1979.86  2019.76  2055.09
                             2084.99  2121.44  2125.81  2404.34  2446.99
                             2479.01  3395.35  4351.49  4407.52  4415.92
                             4421.57  4475.13  4481.98  4515.91  4940.35
                             5052.66

 Zero-point correction=                           0.150814 (Hartree/Particle)
 Thermal correction to Energy=                    0.162151
 Thermal correction to Enthalpy=                  0.163095
 Thermal correction to Gibbs Free Energy=         0.112696
 Sum of electronic and zero-point Energies=           -469.485611
 Sum of electronic and thermal Energies=              -469.474274
 Sum of electronic and thermal Enthalpies=            -469.473330
 Sum of electronic and thermal Free Energies=         -469.523728

                     E (Thermal)             CV                S
                      KCal/Mol        Cal/Mol-Kelvin    Cal/Mol-Kelvin
 Total                  101.751             38.856            106.073
 Electronic               0.000              0.000              0.000
 Translational            0.889              2.981             40.701
 Rotational               0.889              2.981             30.393
 Vibrational             99.974             32.894             34.978
 Vibration     1          0.594              1.983              5.654
 Vibration     2          0.598              1.969              4.187
 Vibration     3          0.604              1.950              3.468
 Vibration     4          0.608              1.934              3.133
 Vibration     5          0.612              1.924              2.952
 Vibration     6          0.631              1.862              2.287
 Vibration     7          0.642              1.827              2.052
 Vibration     8          0.661              1.768              1.753
 Vibration     9          0.671              1.737              1.627
 Vibration    10          0.713              1.614              1.256
 Vibration    11          0.721              1.592              1.203
 Vibration    12          0.747              1.521              1.055
 Vibration    13          0.777              1.442              0.916
 Vibration    14          0.821              1.332              0.758
 Vibration    15          0.856              1.250              0.658
 Vibration    16          0.940              1.067              0.479

 Optimization completed.
    -- Stationary point found.
 Normal termination of Gaussian 16 at Mon May 31 21:05:51 2021.
