 Gaussian 16, Revision A.03,
 Gaussian 16:  ES64L-G16RevA.03 25-Dec-2016

 -----------------------------
 # opt freq b3lyp/6-31g(2df,p)
 -----------------------------

 -------------------
 Title Card Required
 -------------------
 Symbolic Z-matrix:
 Charge =  0 Multiplicity = 1

 SCF Done:  E(RB3LYP) =  -510.141183896     A.U. after   15 cycles
 SCF Done:  E(RB3LYP) =  -510.150974987     A.U. after   13 cycles
 SCF Done:  E(RB3LYP) =  -510.153515193     A.U. after   12 cycles
 SCF Done:  E(RB3LYP) =  -510.154149044     A.U. after   12 cycles
 SCF Done:  E(RB3LYP) =  -510.154216390     A.U. after   13 cycles
 SCF Done:  E(RB3LYP) =  -510.154421346     A.U. after   12 cycles
 SCF Done:  E(RB3LYP) =  -510.154478217     A.U. after   12 cycles
 SCF Done:  E(RB3LYP) =  -510.154577587     A.U. after   13 cycles
 SCF Done:  E(RB3LYP) =  -510.154627874     A.U. after   14 cycles
 SCF Done:  E(RB3LYP) =  -510.154758447     A.U. after   12 cycles
 SCF Done:  E(RB3LYP) =  -510.157084780     A.U. after   13 cycles
 SCF Done:  E(RB3LYP) =  -510.157338086     A.U. after   15 cycles
 SCF Done:  E(RB3LYP) =  -510.157553340     A.U. after   14 cycles
 SCF Done:  E(RB3LYP) =  -510.157671064     A.U. after   14 cycles
 SCF Done:  E(RB3LYP) =  -510.157753469     A.U. after   11 cycles
 SCF Done:  E(RB3LYP) =  -510.157756963     A.U. after   10 cycles
 SCF Done:  E(RB3LYP) =  -510.157757478     A.U. after    9 cycles
 SCF Done:  E(RB3LYP) =  -510.157757559     A.U. after    7 cycles
 SCF Done:  E(RB3LYP) =  -510.157757578     A.U. after    7 cycles
 Optimization completed.
    -- Stationary point found.
 Normal termination of Gaussian 16 at Tue Jun  1 07:16:39 2021.

 ----------------------------------------------------------------------
 #N Geom=AllCheck Guess=TCheck SCRF=Check GenChk RB3LYP/6-31G(2df,p) Fr
 eq
 ----------------------------------------------------------------------

 Structure from the checkpoint file:  "CCdNNdNCpdNpCNCC.chk"
 -------------------
 Title Card Required
 -------------------
 Charge =  0 Multiplicity = 1

                         Standard orientation:
 ---------------------------------------------------------------------
 Center     Atomic      Atomic             Coordinates (Angstroms)
 Number     Number       Type             X           Y           Z
 ---------------------------------------------------------------------
      1          6           0       -5.416330   -0.354365   -0.266758
      2          6           0       -4.019313    0.145375   -0.377459
      3          7           0       -3.051704   -0.436783    0.227308
      4          7           0       -1.847319    0.246136   -0.048174
      5          7           0       -0.887181   -0.332718    0.485598
      6          6           0        0.361319    0.360372    0.283747
      7          7           0        0.525618    1.617007    0.285710
      8          6           0        1.517277   -0.600995    0.210576
      9          7           0        2.721431    0.038617   -0.257693
     10          6           0        3.944287   -0.686234    0.051389
     11          6           0        5.169183    0.071318   -0.451967
     12          1           0       -6.066997    0.431800    0.135189
     13          1           0       -5.466437   -1.234818    0.375046
     14          1           0       -5.807326   -0.601720   -1.261238
     15          1           0       -3.827079    1.030790   -0.993423
     16          1           0       -0.376224    2.092586    0.366116
     17          1           0        1.236812   -1.437732   -0.446805
     18          1           0        1.606931   -1.050868    1.221852
     19          1           0        2.749279    0.989996    0.095268
     20          1           0        3.892053   -1.668010   -0.438925
     21          1           0        4.053181   -0.892473    1.134509
     22          1           0        5.100185    0.242074   -1.530010
     23          1           0        6.085994   -0.487835   -0.242909
     24          1           0        5.255182    1.047563    0.038931
 ---------------------------------------------------------------------

 SCF Done:  E(RB3LYP) =  -510.157757578     A.U. after    1 cycles

 The electronic state is 1-A.
 Alpha  occ. eigenvalues --  -14.41762 -14.38410 -14.36310 -14.31775 -14.30258
 Alpha  occ. eigenvalues --  -10.25658 -10.25498 -10.21093 -10.20709 -10.19962
 Alpha  occ. eigenvalues --  -10.16873  -1.07447  -0.94854  -0.90811  -0.88018
 Alpha  occ. eigenvalues --   -0.77536  -0.75090  -0.71147  -0.65461  -0.59980
 Alpha  occ. eigenvalues --   -0.57593  -0.55353  -0.52600  -0.48301  -0.46856
 Alpha  occ. eigenvalues --   -0.46422  -0.44849  -0.44563  -0.42824  -0.41987
 Alpha  occ. eigenvalues --   -0.41477  -0.40645  -0.38135  -0.35749  -0.35262
 Alpha  occ. eigenvalues --   -0.34346  -0.33096  -0.32062  -0.28830  -0.27518
 Alpha  occ. eigenvalues --   -0.24040  -0.21377
 Alpha virt. eigenvalues --   -0.08499  -0.00123   0.03464   0.09534   0.09863
 Alpha virt. eigenvalues --    0.11938   0.12448   0.13038   0.14808   0.14839
 Alpha virt. eigenvalues --    0.15174   0.16359   0.17116   0.18055   0.18517

 Mulliken charges:
               1
     1  C   -0.446978
     2  C    0.104727
     3  N   -0.119316
     4  N   -0.112049
     5  N   -0.141304
     6  C    0.355886
     7  N   -0.464552
     8  C   -0.184691
     9  N   -0.293087
    10  C   -0.095914
    11  C   -0.389005
    12  H    0.147993
    13  H    0.153786
    14  H    0.148857
    15  H    0.116195
    16  H    0.229680
    17  H    0.121039
    18  H    0.108705
    19  H    0.233207
    20  H    0.098685
    21  H    0.074018
    22  H    0.126805
    23  H    0.112283
    24  H    0.115029
 Sum of Mulliken charges =  -0.00000

 Dipole moment (field-independent basis, Debye):
    X=             -2.9339    Y=              0.1100    Z=             -0.3599  Tot=              2.9579
 Quadrupole moment (field-independent basis, Debye-Ang):
   XX=            -45.1795   YY=            -67.8048   ZZ=            -67.4461
   XY=             -5.8468   XZ=              5.9651   YZ=              1.9985

  Exact polarizability: 185.297  -0.365  89.872   9.328  -3.703  71.829
 Approx polarizability: 215.158  -4.138 147.879  18.787  -8.623 113.918

                      1                      2                      3
                      A                      A                      A
 Frequencies --     23.6814                50.2642                66.9715
 Red. masses --      3.5565                 2.6353                 3.0448
 Frc consts  --      0.0012                 0.0039                 0.0080
 IR Inten    --      3.9822                 2.8414                 1.6714

                      4                      5                      6
                      A                      A                      A
 Frequencies --     89.7431               102.6123               121.6280
 Red. masses --      2.6107                 2.8140                 2.3860
 Frc consts  --      0.0124                 0.0175                 0.0208
 IR Inten    --      0.8922                 0.8573                 3.0660

                      7                      8                      9
                      A                      A                      A
 Frequencies --    146.8344               187.6326               209.4316
 Red. masses --      4.0476                 1.9428                 1.7115
 Frc consts  --      0.0514                 0.0403                 0.0442
 IR Inten    --      0.1094                 1.1966                 1.4114

                     10                     11                     12
                      A                      A                      A
 Frequencies --    255.6813               267.5541               280.7442
 Red. masses --      1.1428                 4.6142                 3.8320
 Frc consts  --      0.0440                 0.1946                 0.1779
 IR Inten    --      1.0465                 0.5622                 1.9305

                     13                     14                     15
                      A                      A                      A
 Frequencies --    338.2353               347.0263               454.3169
 Red. masses --      4.1022                 4.8591                 3.3126
 Frc consts  --      0.2765                 0.3448                 0.4028
 IR Inten    --      6.0655                 3.4540                 1.1271

                     16                     17                     18
                      A                      A                      A
 Frequencies --    520.9797               551.3435               612.4860
 Red. masses --      3.2044                 3.5544                 3.5399
 Frc consts  --      0.5124                 0.6366                 0.7824
 IR Inten    --      6.9670                 7.8435                 1.2896

                     19                     20                     21
                      A                      A                      A
 Frequencies --    699.0845               755.7241               816.8375
 Red. masses --      3.5070                 1.3502                 1.1133
 Frc consts  --      1.0098                 0.4543                 0.4377
 IR Inten    --     22.5232                62.5026                 1.5574

                     22                     23                     24
                      A                      A                      A
 Frequencies --    885.5134               898.4690               917.1111
 Red. masses --      2.5907                 1.4445                 1.3867
 Frc consts  --      1.1969                 0.6870                 0.6872
 IR Inten    --     12.1447                36.6460                48.8376

                     25                     26                     27
                      A                      A                      A
 Frequencies --    941.8032               982.8145              1015.3467
 Red. masses --      1.5795                 2.1605                 1.8741
 Frc consts  --      0.8255                 1.2296                 1.1383
 IR Inten    --      5.4120                11.6385                29.6450

                     28                     29                     30
                      A                      A                      A
 Frequencies --   1029.2178              1052.0599              1081.0101
 Red. masses --      3.8050                 3.2511                 2.2985
 Frc consts  --      2.3748                 2.1201                 1.5825
 IR Inten    --     81.2854                 5.4271                50.7318

                     31                     32                     33
                      A                      A                      A
 Frequencies --   1105.9483              1144.1653              1167.2034
 Red. masses --      1.6611                 1.7810                 2.1748
 Frc consts  --      1.1970                 1.3737                 1.7457
 IR Inten    --      0.1600                18.3854                16.7468

                     34                     35                     36
                      A                      A                      A
 Frequencies --   1183.9791              1187.1356              1242.7992
 Red. masses --      1.9586                 2.3112                 1.3951
 Frc consts  --      1.6176                 1.9191                 1.2695
 IR Inten    --     42.0669                42.9852                 7.3702

                     37                     38                     39
                      A                      A                      A
 Frequencies --   1283.6642              1306.9494              1358.1117
 Red. masses --      1.3708                 1.2098                 1.3186
 Frc consts  --      1.3308                 1.2176                 1.4330
 IR Inten    --     67.1627                34.0539                 6.2013

                     40                     41                     42
                      A                      A                      A
 Frequencies --   1371.8222              1404.9868              1406.2601
 Red. masses --      1.4985                 1.3453                 1.3119
 Frc consts  --      1.6615                 1.5646                 1.5285
 IR Inten    --     14.9137                 5.4624                 8.7638

                     43                     44                     45
                      A                      A                      A
 Frequencies --   1428.5183              1463.7661              1474.1021
 Red. masses --      1.6124                 1.0846                 1.0455
 Frc consts  --      1.9386                 1.3692                 1.3386
 IR Inten    --     68.2231                29.0520                 7.8371

                     46                     47                     48
                      A                      A                      A
 Frequencies --   1482.9761              1488.5167              1498.3259
 Red. masses --      1.1253                 1.0663                 1.0458
 Frc consts  --      1.4581                 1.3919                 1.3833
 IR Inten    --      8.7526                15.9212                13.8668

                     49                     50                     51
                      A                      A                      A
 Frequencies --   1508.8336              1526.3555              1585.6652
 Red. masses --      1.1928                 1.0938                10.5615
 Frc consts  --      1.5999                 1.5014                15.6458
 IR Inten    --     54.7103                 5.4293               105.7890

                     52                     53                     54
                      A                      A                      A
 Frequencies --   1705.3407              1723.1777              2886.8037
 Red. masses --      7.4528                 9.2712                 1.0743
 Frc consts  --     12.7701                16.2199                 5.2749
 IR Inten    --    107.3445                61.4857                42.3277

                     55                     56                     57
                      A                      A                      A
 Frequencies --   2905.1945              3005.1332              3020.2313
 Red. masses --      1.0740                 1.0812                 1.0837
 Frc consts  --      5.3406                 5.7529                 5.8245
 IR Inten    --    104.1860                27.3257                29.9533

                     58                     59                     60
                      A                      A                      A
 Frequencies --   3030.3126              3034.6120              3070.6370
 Red. masses --      1.0387                 1.0373                 1.0867
 Frc consts  --      5.6197                 5.6283                 6.0368
 IR Inten    --      4.6747                27.8716                18.7269

                     61                     62                     63
                      A                      A                      A
 Frequencies --   3081.4355              3100.2705              3118.9365
 Red. masses --      1.0974                 1.0993                 1.1022
 Frc consts  --      6.1395                 6.2255                 6.3173
 IR Inten    --      6.3289                37.9913                27.7922

                     64                     65                     66
                      A                      A                      A
 Frequencies --   3150.9548              3455.3351              3526.2913
 Red. masses --      1.1002                 1.0732                 1.0736
 Frc consts  --      6.4356                 7.5491                 7.8656
 IR Inten    --      6.4748                 0.5680                11.9031

 - Thermochemistry -
 -------------------
 Temperature   298.150 Kelvin.  Pressure   1.00000 Atm.
 Atom     1 has atomic number  6 and mass  12.00000

 Molecular mass:   155.11710 amu.
 Principal axes and moments of inertia in atomic units:
                           1         2         3
     Eigenvalues --   332.056485895.864666076.82557
           X            0.99999  -0.00268   0.00222
           Y            0.00272   0.99983  -0.01835
           Z           -0.00217   0.01836   0.99983
 This molecule is an asymmetric top.
 Rotational symmetry number  1.
 Rotational temperatures (Kelvin)      0.26084     0.01469     0.01425
 Rotational constants (GHZ):           5.43504     0.30610     0.29699
 Zero-point vibrational energy     527175.8 (Joules/Mol)
                                  125.99804 (Kcal/Mol)
 Warning -- explicit consideration of  18 degrees of freedom as
           vibrations may cause significant error
 Vibrational temperatures:     34.07    72.32    96.36   129.12   147.64
          (Kelvin)            175.00   211.26   269.96   301.33   367.87
                              384.95   403.93   486.65   499.29   653.66
                              749.57   793.26   881.23  1005.83  1087.32
                             1175.25  1274.06  1292.70  1319.52  1355.04
                             1414.05  1460.86  1480.81  1513.68  1555.33
                             1591.21  1646.20  1679.35  1703.48  1708.02
                             1788.11  1846.91  1880.41  1954.02  1973.75
                             2021.46  2023.29  2055.32  2106.03  2120.90
                             2133.67  2141.64  2155.76  2170.87  2196.09
                             2281.42  2453.60  2479.27  4153.47  4179.93
                             4323.72  4345.44  4359.94  4366.13  4417.96
                             4433.50  4460.60  4487.45  4533.52  4971.46
                             5073.55

 Zero-point correction=                           0.200791 (Hartree/Particle)
 Thermal correction to Energy=                    0.213907
 Thermal correction to Enthalpy=                  0.214851
 Thermal correction to Gibbs Free Energy=         0.159636
 Sum of electronic and zero-point Energies=           -509.956967
 Sum of electronic and thermal Energies=              -509.943850
 Sum of electronic and thermal Enthalpies=            -509.942906
 Sum of electronic and thermal Free Energies=         -509.998121

                     E (Thermal)             CV                S
                      KCal/Mol        Cal/Mol-Kelvin    Cal/Mol-Kelvin
 Total                  134.229             45.105            116.210
 Electronic               0.000              0.000              0.000
 Translational            0.889              2.981             41.027
 Rotational               0.889              2.981             30.854
 Vibrational            132.451             39.143             44.329
 Vibration     1          0.593              1.985              6.299
 Vibration     2          0.595              1.977              4.807
 Vibration     3          0.598              1.970              4.240
 Vibration     4          0.602              1.956              3.666
 Vibration     5          0.605              1.947              3.404
 Vibration     6          0.609              1.931              3.074
 Vibration     7          0.617              1.906              2.713
 Vibration     8          0.632              1.857              2.251
 Vibration     9          0.642              1.826              2.049
 Vibration    10          0.666              1.753              1.691
 Vibration    11          0.673              1.733              1.612
 Vibration    12          0.680              1.709              1.529
 Vibration    13          0.719              1.599              1.220
 Vibration    14          0.725              1.581              1.180
 Vibration    15          0.813              1.351              0.783
 Vibration    16          0.876              1.204              0.608
 Vibration    17          0.907              1.137              0.541
 Vibration    18          0.972              1.005              0.429

 Optimization completed.
    -- Stationary point found.
 Normal termination of Gaussian 16 at Tue Jun  1 07:52:16 2021.
