 Gaussian 16, Revision A.03,
 Gaussian 16:  ES64L-G16RevA.03 25-Dec-2016

 -----------------------------
 # opt freq b3lyp/6-31g(2df,p)
 -----------------------------

 -------------------
 Title Card Required
 -------------------
 Symbolic Z-matrix:
 Charge =  0 Multiplicity = 1

 SCF Done:  E(RB3LYP) =  -415.445809342     A.U. after   15 cycles
 SCF Done:  E(RB3LYP) =  -415.454659746     A.U. after   15 cycles
 SCF Done:  E(RB3LYP) =  -415.456903269     A.U. after   12 cycles
 SCF Done:  E(RB3LYP) =  -415.460422021     A.U. after   13 cycles
 SCF Done:  E(RB3LYP) =  -415.444984405     A.U. after   14 cycles
 SCF Done:  E(RB3LYP) =  -415.467329866     A.U. after   13 cycles
 SCF Done:  E(RB3LYP) =  -415.469574360     A.U. after   12 cycles
 SCF Done:  E(RB3LYP) =  -415.470306910     A.U. after   12 cycles
 SCF Done:  E(RB3LYP) =  -415.470929674     A.U. after   13 cycles
 SCF Done:  E(RB3LYP) =  -415.471180541     A.U. after   15 cycles
 SCF Done:  E(RB3LYP) =  -415.476568163     A.U. after   11 cycles
 SCF Done:  E(RB3LYP) =  -415.477079371     A.U. after   11 cycles
 SCF Done:  E(RB3LYP) =  -415.477806038     A.U. after   11 cycles
 SCF Done:  E(RB3LYP) =  -415.478613472     A.U. after   12 cycles
 SCF Done:  E(RB3LYP) =  -415.478768437     A.U. after   11 cycles
 SCF Done:  E(RB3LYP) =  -415.478848050     A.U. after   10 cycles
 SCF Done:  E(RB3LYP) =  -415.478867813     A.U. after   10 cycles
 SCF Done:  E(RB3LYP) =  -415.478870625     A.U. after    8 cycles
 SCF Done:  E(RB3LYP) =  -415.478871712     A.U. after    8 cycles
 Optimization completed.
    -- Stationary point found.
 Normal termination of Gaussian 16 at Tue Jun  1 15:32:30 2021.

 ----------------------------------------------------------------------
 #N Geom=AllCheck Guess=TCheck SCRF=Check GenChk RB3LYP/6-31G(2df,p) Fr
 eq
 ----------------------------------------------------------------------

 Structure from the checkpoint file:  "CCdNNpCpNCCtN.chk"
 -------------------
 Title Card Required
 -------------------
 Charge =  0 Multiplicity = 1

                         Standard orientation:
 ---------------------------------------------------------------------
 Center     Atomic      Atomic             Coordinates (Angstroms)
 Number     Number       Type             X           Y           Z
 ---------------------------------------------------------------------
      1          6           0        3.371422   -1.331939   -0.146652
      2          6           0        2.423148   -0.172750   -0.111138
      3          7           0        1.269272   -0.310036    0.422320
      4          7           0        0.412674    0.747865    0.520381
      5          6           0        0.596767    1.903675   -0.354060
      6          7           0       -0.900481    0.281005    0.717674
      7          6           0       -1.584595   -0.131445   -0.518764
      8          6           0       -2.941202   -0.582937   -0.214574
      9          7           0       -4.022346   -0.909940    0.027106
     10          1           0        4.287546   -1.107844    0.414192
     11          1           0        3.679264   -1.557779   -1.175003
     12          1           0        2.901971   -2.216876    0.287139
     13          1           0        2.779850    0.770871   -0.532588
     14          1           0        1.491807    2.455963   -0.053461
     15          1           0       -0.260594    2.569363   -0.237706
     16          1           0        0.705466    1.628305   -1.415550
     17          1           0       -1.423895    0.998385    1.206536
     18          1           0       -1.014579   -0.963979   -0.945453
     19          1           0       -1.653913    0.653713   -1.289344
 ---------------------------------------------------------------------

 SCF Done:  E(RB3LYP) =  -415.478871712     A.U. after    1 cycles

 The electronic state is 1-A.
 Alpha  occ. eigenvalues --  -14.40146 -14.36900 -14.35744 -14.33281 -10.26099
 Alpha  occ. eigenvalues --  -10.23023 -10.22444 -10.21852 -10.18610  -1.04397
 Alpha  occ. eigenvalues --   -0.92474  -0.90046  -0.81775  -0.74532  -0.73867
 Alpha  occ. eigenvalues --   -0.66732  -0.55922  -0.55456  -0.53362  -0.50775
 Alpha  occ. eigenvalues --   -0.48796  -0.46557  -0.44339  -0.42401  -0.42031
 Alpha  occ. eigenvalues --   -0.40629  -0.38293  -0.36162  -0.35406  -0.33638
 Alpha  occ. eigenvalues --   -0.33014  -0.27448  -0.26901  -0.22060
 Alpha virt. eigenvalues --    0.00163   0.02767   0.03698   0.06978   0.10116
 Alpha virt. eigenvalues --    0.10820   0.12036   0.13099   0.13862   0.14214
 Alpha virt. eigenvalues --    0.15907   0.16732   0.17030   0.17801   0.18940

 Mulliken charges:
               1
     1  C   -0.431589
     2  C    0.012807
     3  N   -0.093412
     4  N   -0.025714
     5  C   -0.341339
     6  N   -0.247463
     7  C   -0.257253
     8  C    0.259140
     9  N   -0.294996
    10  H    0.128697
    11  H    0.124855
    12  H    0.140658
    13  H    0.080863
    14  H    0.145698
    15  H    0.130174
    16  H    0.119627
    17  H    0.244007
    18  H    0.172402
    19  H    0.132837
 Sum of Mulliken charges =  -0.00000

 Dipole moment (field-independent basis, Debye):
    X=              3.7384    Y=              3.1488    Z=             -2.1770  Tot=              5.3507
 Quadrupole moment (field-independent basis, Debye-Ang):
   XX=            -67.6524   YY=            -51.2737   ZZ=            -54.3232
   XY=             -6.1340   XZ=             -0.1128   YZ=              1.6155

  Exact polarizability: 121.969  -3.810  73.603  -7.022  -0.835  59.039
 Approx polarizability: 167.509  -0.789 103.390 -18.808  -0.823  94.640

                      1                      2                      3
                      A                      A                      A
 Frequencies --     46.1199                81.2327               130.9947
 Red. masses --      5.2062                 3.1405                 1.9296
 Frc consts  --      0.0065                 0.0122                 0.0195
 IR Inten    --      3.0375                 5.8813                 1.0836

                      4                      5                      6
                      A                      A                      A
 Frequencies --    156.6933               191.9073               206.3783
 Red. masses --      1.7963                 2.2239                 2.2122
 Frc consts  --      0.0260                 0.0483                 0.0555
 IR Inten    --      2.9896                 4.4007                 3.0507

                      7                      8                      9
                      A                      A                      A
 Frequencies --    230.1019               271.4674               298.6777
 Red. masses --      2.6437                 1.2404                 3.9526
 Frc consts  --      0.0825                 0.0539                 0.2077
 IR Inten    --      4.3352                 6.2491                 7.8453

                     10                     11                     12
                      A                      A                      A
 Frequencies --    387.0343               402.4877               471.6206
 Red. masses --      3.3476                 2.9280                 4.4925
 Frc consts  --      0.2954                 0.2795                 0.5887
 IR Inten    --      2.1702                 3.0437                20.2500

                     13                     14                     15
                      A                      A                      A
 Frequencies --    485.9405               522.9394               622.0621
 Red. masses --      5.9463                 3.0179                 4.2628
 Frc consts  --      0.8273                 0.4862                 0.9719
 IR Inten    --      6.0444                 3.0903                 6.6114

                     16                     17                     18
                      A                      A                      A
 Frequencies --    722.6354               830.6653               890.0075
 Red. masses --      1.5848                 3.1055                 1.3312
 Frc consts  --      0.4876                 1.2625                 0.6213
 IR Inten    --     88.0167                 6.4119                10.2680

                     19                     20                     21
                      A                      A                      A
 Frequencies --    954.4550               977.3461              1003.2943
 Red. masses --      2.7795                 2.2830                 2.2573
 Frc consts  --      1.4919                 1.2849                 1.3387
 IR Inten    --      1.2309                 4.3465                 9.6000

                     22                     23                     24
                      A                      A                      A
 Frequencies --   1057.8409              1065.9453              1078.1442
 Red. masses --      1.9842                 1.6068                 2.4366
 Frc consts  --      1.3082                 1.0757                 1.6688
 IR Inten    --     28.5298                 4.6213                 8.0055

                     25                     26                     27
                      A                      A                      A
 Frequencies --   1117.3612              1138.9679              1188.2572
 Red. masses --      1.5216                 2.5090                 3.2364
 Frc consts  --      1.1193                 1.9177                 2.6924
 IR Inten    --     29.0085                 3.0251                21.8134

                     28                     29                     30
                      A                      A                      A
 Frequencies --   1231.6060              1281.6429              1359.6295
 Red. masses --      1.3238                 2.0540                 1.3407
 Frc consts  --      1.1831                 1.9878                 1.4602
 IR Inten    --     14.3399                 9.6226                 4.1585

                     31                     32                     33
                      A                      A                      A
 Frequencies --   1380.9874              1414.6540              1440.7839
 Red. masses --      1.3159                 1.3741                 1.1886
 Frc consts  --      1.4786                 1.6202                 1.4537
 IR Inten    --      6.6781                 5.7424                 1.2124

                     34                     35                     36
                      A                      A                      A
 Frequencies --   1476.0797              1478.5170              1481.7938
 Red. masses --      1.0516                 1.0465                 1.0560
 Frc consts  --      1.3500                 1.3478                 1.3662
 IR Inten    --      7.7922                 4.7897                 7.0519

                     37                     38                     39
                      A                      A                      A
 Frequencies --   1488.6555              1503.7291              1517.4247
 Red. masses --      1.0890                 1.0856                 1.1173
 Frc consts  --      1.4219                 1.4462                 1.5157
 IR Inten    --      1.8769                 7.8654                13.9053

                     40                     41                     42
                      A                      A                      A
 Frequencies --   1704.0902              2367.3073              2969.4761
 Red. masses --      6.8630                12.6236                 1.0628
 Frc consts  --     11.7421                41.6815                 5.5217
 IR Inten    --      2.3093                 8.9262                 0.6217

                     43                     44                     45
                      A                      A                      A
 Frequencies --   2979.3564              3021.3245              3068.3993
 Red. masses --      1.0585                 1.0388                 1.0988
 Frc consts  --      5.5361                 5.5868                 6.0954
 IR Inten    --     59.0289                33.3301                17.6499

                     46                     47                     48
                      A                      A                      A
 Frequencies --   3073.1238              3075.0258              3083.2157
 Red. masses --      1.0884                 1.0859                 1.0813
 Frc consts  --      6.0559                 6.0495                 6.0560
 IR Inten    --      1.5552                13.5076                41.1005

                     49                     50                     51
                      A                      A                      A
 Frequencies --   3129.4812              3137.4173              3543.3102
 Red. masses --      1.1011                 1.0988                 1.0754
 Frc consts  --      6.3534                 6.3726                 7.9549
 IR Inten    --     12.3095                12.9721                 4.1556

 - Thermochemistry -
 -------------------
 Temperature   298.150 Kelvin.  Pressure   1.00000 Atm.
 Atom     1 has atomic number  6 and mass  12.00000

 Molecular mass:   126.09055 amu.
 Principal axes and moments of inertia in atomic units:
                           1         2         3
     Eigenvalues --   518.190152468.938282793.49455
           X            0.99975  -0.02166  -0.00465
           Y            0.02158   0.99964  -0.01623
           Z            0.00500   0.01613   0.99986
 This molecule is an asymmetric top.
 Rotational symmetry number  1.
 Warning -- assumption of classical behavior for rotation
           may cause significant error
 Rotational temperatures (Kelvin)      0.16715     0.03508     0.03101
 Rotational constants (GHZ):           3.48278     0.73098     0.64605
 Zero-point vibrational energy     411142.2 (Joules/Mol)
                                   98.26535 (Kcal/Mol)
 Warning -- explicit consideration of  14 degrees of freedom as
           vibrations may cause significant error
 Vibrational temperatures:     66.36   116.88   188.47   225.45   276.11
          (Kelvin)            296.93   331.07   390.58   429.73   556.86
                              579.09   678.56   699.16   752.39   895.01
                             1039.71  1195.14  1280.52  1373.25  1406.18
                             1443.52  1522.00  1533.66  1551.21  1607.63
                             1638.72  1709.64  1772.01  1844.00  1956.20
                             1986.93  2035.37  2072.97  2123.75  2127.26
                             2131.97  2141.84  2163.53  2183.24  2451.81
                             3406.03  4272.41  4286.63  4347.01  4414.74
                             4421.54  4424.28  4436.06  4502.63  4514.04
                             5098.03

 Zero-point correction=                           0.156596 (Hartree/Particle)
 Thermal correction to Energy=                    0.166923
 Thermal correction to Enthalpy=                  0.167867
 Thermal correction to Gibbs Free Energy=         0.120586
 Sum of electronic and zero-point Energies=           -415.322276
 Sum of electronic and thermal Energies=              -415.311949
 Sum of electronic and thermal Enthalpies=            -415.311005
 Sum of electronic and thermal Free Energies=         -415.358286

                     E (Thermal)             CV                S
                      KCal/Mol        Cal/Mol-Kelvin    Cal/Mol-Kelvin
 Total                  104.746             36.377             99.512
 Electronic               0.000              0.000              0.000
 Translational            0.889              2.981             40.409
 Rotational               0.889              2.981             29.659
 Vibrational            102.968             30.415             29.444
 Vibration     1          0.595              1.979              4.977
 Vibration     2          0.600              1.962              3.861
 Vibration     3          0.612              1.922              2.931
 Vibration     4          0.620              1.895              2.589
 Vibration     5          0.634              1.851              2.209
 Vibration     6          0.641              1.831              2.075
 Vibration     7          0.652              1.795              1.878
 Vibration     8          0.675              1.726              1.587
 Vibration     9          0.692              1.676              1.424
 Vibration    10          0.755              1.498              1.012
 Vibration    11          0.768              1.465              0.954
 Vibration    12          0.829              1.313              0.733
 Vibration    13          0.842              1.281              0.694
 Vibration    14          0.878              1.199              0.603

                           ! Non-Optimized Parameters !
 Normal termination of Gaussian 16 at Tue Jun  1 15:56:33 2021.
