 Gaussian 16, Revision A.03,
 Gaussian 16:  ES64L-G16RevA.03 25-Dec-2016

 -----------------------------
 # opt freq b3lyp/6-31g(2df,p)
 -----------------------------

 -------------------
 Title Card Required
 -------------------
 Symbolic Z-matrix:
 Charge =  0 Multiplicity = 1

 SCF Done:  E(RB3LYP) =  -381.135084642     A.U. after   14 cycles
 SCF Done:  E(RB3LYP) =  -381.143188316     A.U. after   12 cycles
 SCF Done:  E(RB3LYP) =  -381.152047936     A.U. after   13 cycles
 SCF Done:  E(RB3LYP) =  -381.159727599     A.U. after   13 cycles
 SCF Done:  E(RB3LYP) =  -381.162236658     A.U. after   12 cycles
 SCF Done:  E(RB3LYP) =  -381.167154560     A.U. after   12 cycles
 SCF Done:  E(RB3LYP) =  -381.169364565     A.U. after   11 cycles
 SCF Done:  E(RB3LYP) =  -381.170417949     A.U. after   11 cycles
 SCF Done:  E(RB3LYP) =  -381.170899558     A.U. after   11 cycles
 SCF Done:  E(RB3LYP) =  -381.171135183     A.U. after   10 cycles
 SCF Done:  E(RB3LYP) =  -381.171296432     A.U. after   10 cycles
 SCF Done:  E(RB3LYP) =  -381.171337714     A.U. after    9 cycles
 SCF Done:  E(RB3LYP) =  -381.171345140     A.U. after    8 cycles
 SCF Done:  E(RB3LYP) =  -381.171346380     A.U. after    7 cycles
 SCF Done:  E(RB3LYP) =  -381.171346453     A.U. after    7 cycles
 SCF Done:  E(RB3LYP) =  -381.171346490     A.U. after    7 cycles
 SCF Done:  E(RB3LYP) =  -381.171346518     A.U. after    7 cycles
 Optimization completed.
    -- Stationary point found.
 Normal termination of Gaussian 16 at Mon May 31 22:18:09 2021.

 ----------------------------------------------------------------------
 #N Geom=AllCheck Guess=TCheck SCRF=Check GenChk RB3LYP/6-31G(2df,p) Fr
 eq
 ----------------------------------------------------------------------

 Structure from the checkpoint file:  "CCN1CdCCNO1.chk"
 -------------------
 Title Card Required
 -------------------
 Charge =  0 Multiplicity = 1

                         Standard orientation:
 ---------------------------------------------------------------------
 Center     Atomic      Atomic             Coordinates (Angstroms)
 Number     Number       Type             X           Y           Z
 ---------------------------------------------------------------------
      1          6           0       -2.946001    0.265828    0.281953
      2          6           0       -1.794473   -0.449475   -0.420867
      3          7           0       -0.508605   -0.154898    0.212550
      4          6           0        0.036651    1.121335    0.012741
      5          6           0        1.347637    1.334740   -0.122128
      6          6           0        2.311201    0.184149   -0.067647
      7          7           0        1.655958   -1.068074    0.347104
      8          8           0        0.408790   -1.174250   -0.291805
      9          1           0       -3.895987   -0.045879   -0.161830
     10          1           0       -2.881253    1.353566    0.182562
     11          1           0       -2.960869    0.020372    1.347298
     12          1           0       -1.778522   -0.205543   -1.494331
     13          1           0       -1.920305   -1.531885   -0.333817
     14          1           0       -0.688014    1.927714    0.048573
     15          1           0        1.725875    2.342900   -0.243079
     16          1           0        3.116126    0.367405    0.657216
     17          1           0        2.799042    0.014589   -1.036701
     18          1           0        1.452023   -1.027896    1.346656
 ---------------------------------------------------------------------

 SCF Done:  E(RB3LYP) =  -381.171346518     A.U. after    1 cycles

 The electronic state is 1-A.
 Alpha  occ. eigenvalues --  -19.18920 -14.37640 -14.36528 -10.21605 -10.21092
 Alpha  occ. eigenvalues --  -10.20835 -10.18524 -10.17202  -1.09450  -0.91060
 Alpha  occ. eigenvalues --   -0.82926  -0.76902  -0.70124  -0.67358  -0.61199
 Alpha  occ. eigenvalues --   -0.56016  -0.51235  -0.49899  -0.47268  -0.45815
 Alpha  occ. eigenvalues --   -0.42021  -0.40797  -0.40398  -0.38801  -0.38186
 Alpha  occ. eigenvalues --   -0.37049  -0.35935  -0.32829  -0.26936  -0.23975
 Alpha  occ. eigenvalues --   -0.19940
 Alpha virt. eigenvalues --    0.02598   0.07358   0.09005   0.10492   0.12599
 Alpha virt. eigenvalues --    0.13509   0.15011   0.15780   0.16440   0.17021
 Alpha virt. eigenvalues --    0.17488   0.18523   0.20122   0.20883   0.22612

 Mulliken charges:
               1
     1  C   -0.395095
     2  C   -0.102627
     3  N   -0.030919
     4  C    0.039577
     5  C   -0.140308
     6  C   -0.188675
     7  N   -0.189860
     8  O   -0.263929
     9  H    0.123320
    10  H    0.123238
    11  H    0.131614
    12  H    0.101504
    13  H    0.124924
    14  H    0.110068
    15  H    0.090235
    16  H    0.109984
    17  H    0.123613
    18  H    0.233335
 Sum of Mulliken charges =   0.00000

 Dipole moment (field-independent basis, Debye):
    X=             -0.9060    Y=              1.7177    Z=              0.5610  Tot=              2.0214
 Quadrupole moment (field-independent basis, Debye-Ang):
   XX=            -43.3323   YY=            -50.0429   ZZ=            -48.1108
   XY=              2.6001   XZ=              1.8195   YZ=             -1.1973

  Exact polarizability:  99.960   3.329  66.746   0.841  -1.019  52.998
 Approx polarizability: 137.350   6.326 100.920  -0.224  -1.062  82.077

                      1                      2                      3
                      A                      A                      A
 Frequencies --     70.3563               110.8570               212.9595
 Red. masses --      2.5002                 2.1199                 1.4603
 Frc consts  --      0.0073                 0.0153                 0.0390
 IR Inten    --      0.0342                 3.5507                 1.2831

                      4                      5                      6
                      A                      A                      A
 Frequencies --    227.2942               281.1796               341.3903
 Red. masses --      2.7229                 1.6750                 4.0370
 Frc consts  --      0.0829                 0.0780                 0.2772
 IR Inten    --      3.0257                 4.1026                 4.1316

                      7                      8                      9
                      A                      A                      A
 Frequencies --    392.8189               477.7941               528.0728
 Red. masses --      3.9470                 2.2062                 4.5653
 Frc consts  --      0.3588                 0.2967                 0.7501
 IR Inten    --      7.3257                11.5858                 2.8345

                     10                     11                     12
                      A                      A                      A
 Frequencies --    574.3665               709.9424               760.4467
 Red. masses --      4.5135                 1.7967                 2.6906
 Frc consts  --      0.8773                 0.5335                 0.9167
 IR Inten    --     13.6554                12.3433                 9.0256

                     13                     14                     15
                      A                      A                      A
 Frequencies --    812.5252               820.2416               834.5193
 Red. masses --      1.3024                 3.2030                 2.5455
 Frc consts  --      0.5066                 1.2697                 1.0445
 IR Inten    --     12.4129                30.1154                33.1101

                     16                     17                     18
                      A                      A                      A
 Frequencies --    922.6478               937.7098               946.3405
 Red. masses --      2.4036                 1.2473                 2.9379
 Frc consts  --      1.2056                 0.6462                 1.5502
 IR Inten    --      8.5689                 1.4935                 7.3570

                     19                     20                     21
                      A                      A                      A
 Frequencies --    989.0425              1028.1402              1073.0727
 Red. masses --      1.8875                 3.0625                 2.6832
 Frc consts  --      1.0878                 1.9073                 1.8204
 IR Inten    --      1.1457                19.0383                16.9405

                     22                     23                     24
                      A                      A                      A
 Frequencies --   1098.6379              1114.5245              1176.5703
 Red. masses --      2.6842                 1.5529                 1.5880
 Frc consts  --      1.9089                 1.1365                 1.2952
 IR Inten    --      1.0658                37.4812                 2.7046

                     25                     26                     27
                      A                      A                      A
 Frequencies --   1207.9326              1241.0266              1280.4967
 Red. masses --      1.5701                 1.7991                 1.2760
 Frc consts  --      1.3498                 1.6326                 1.2327
 IR Inten    --      6.1314                49.9258                 7.5546

                     28                     29                     30
                      A                      A                      A
 Frequencies --   1308.6771              1354.1171              1382.7029
 Red. masses --      1.2309                 1.4048                 1.3700
 Frc consts  --      1.2421                 1.5177                 1.5432
 IR Inten    --     44.2302                12.4602                 7.7006

                     31                     32                     33
                      A                      A                      A
 Frequencies --   1412.6659              1426.3387              1478.6612
 Red. masses --      1.2692                 1.7537                 1.0853
 Frc consts  --      1.4923                 2.1021                 1.3981
 IR Inten    --      5.5000                 3.4914                 0.1378

                     34                     35                     36
                      A                      A                      A
 Frequencies --   1492.3157              1495.8407              1500.0612
 Red. masses --      1.0557                 1.0965                 1.0616
 Frc consts  --      1.3852                 1.4455                 1.4074
 IR Inten    --      2.9955                 4.2404                 2.4535

                     37                     38                     39
                      A                      A                      A
 Frequencies --   1517.6313              1718.3785              2986.5027
 Red. masses --      1.0904                 6.4476                 1.0709
 Frc consts  --      1.4797                11.2172                 5.6276
 IR Inten    --      2.2958                39.0083                62.0127

                     40                     41                     42
                      A                      A                      A
 Frequencies --   3010.6947              3038.3467              3044.2666
 Red. masses --      1.0590                 1.1030                 1.0352
 Frc consts  --      5.6556                 5.9994                 5.6526
 IR Inten    --     55.0466                22.5789                18.9019

                     43                     44                     45
                      A                      A                      A
 Frequencies --   3088.0354              3114.1485              3124.2755
 Red. masses --      1.0916                 1.0995                 1.1028
 Frc consts  --      6.1330                 6.2824                 6.3423
 IR Inten    --      1.6693                34.0442                23.4422

                     46                     47                     48
                      A                      A                      A
 Frequencies --   3181.0542              3203.1530              3438.0136
 Red. masses --      1.0846                 1.0975                 1.0744
 Frc consts  --      6.4663                 6.6348                 7.4821
 IR Inten    --      3.0262                14.4966                 3.3136

 - Thermochemistry -
 -------------------
 Temperature   298.150 Kelvin.  Pressure   1.00000 Atm.
 Atom     1 has atomic number  6 and mass  12.00000

 Molecular mass:   114.07931 amu.
 Principal axes and moments of inertia in atomic units:
                           1         2         3
     Eigenvalues --   384.963751251.764981532.07442
           X            0.99997   0.00735   0.00011
           Y           -0.00735   0.99995  -0.00659
           Z           -0.00016   0.00659   0.99998
 This molecule is an asymmetric top.
 Rotational symmetry number  1.
 Rotational temperatures (Kelvin)      0.22499     0.06919     0.05653
 Rotational constants (GHZ):           4.68808     1.44176     1.17797
 Zero-point vibrational energy     403660.6 (Joules/Mol)
                                   96.47721 (Kcal/Mol)
 Warning -- explicit consideration of  10 degrees of freedom as
           vibrations may cause significant error
 Vibrational temperatures:    101.23   159.50   306.40   327.03   404.55
          (Kelvin)            491.18   565.18   687.44   759.78   826.39
                             1021.45  1094.11  1169.04  1180.14  1200.69
                             1327.48  1349.16  1361.57  1423.01  1479.26
                             1543.91  1580.69  1603.55  1692.82  1737.95
                             1785.56  1842.35  1882.89  1948.27  1989.40
                             2032.51  2052.18  2127.46  2147.11  2152.18
                             2158.25  2183.53  2472.36  4296.91  4331.72
                             4371.50  4380.02  4442.99  4480.57  4495.14
                             4576.83  4608.62  4946.53

 Zero-point correction=                           0.153746 (Hartree/Particle)
 Thermal correction to Energy=                    0.161732
 Thermal correction to Enthalpy=                  0.162676
 Thermal correction to Gibbs Free Energy=         0.121244
 Sum of electronic and zero-point Energies=           -381.017600
 Sum of electronic and thermal Energies=              -381.009615
 Sum of electronic and thermal Enthalpies=            -381.008671
 Sum of electronic and thermal Free Energies=         -381.050102

                     E (Thermal)             CV                S
                      KCal/Mol        Cal/Mol-Kelvin    Cal/Mol-Kelvin
 Total                  101.488             29.924             87.201
 Electronic               0.000              0.000              0.000
 Translational            0.889              2.981             40.111
 Rotational               0.889              2.981             28.092
 Vibrational             99.711             23.962             18.998
 Vibration     1          0.598              1.968              4.143
 Vibration     2          0.607              1.940              3.254
 Vibration     3          0.644              1.821              2.018
 Vibration     4          0.651              1.799              1.900
 Vibration     5          0.681              1.708              1.526
 Vibration     6          0.721              1.593              1.206
 Vibration     7          0.760              1.486              0.989
 Vibration     8          0.834              1.299              0.716
 Vibration     9          0.883              1.188              0.592
 Vibration    10          0.931              1.087              0.496

 Optimization completed.
    -- Stationary point found.
 Normal termination of Gaussian 16 at Mon May 31 22:42:47 2021.
