 Gaussian 16, Revision A.03,
 Gaussian 16:  ES64L-G16RevA.03 25-Dec-2016

 -----------------------------
 # opt freq b3lyp/6-31g(2df,p)
 -----------------------------

 -------------------
 Title Card Required
 -------------------
 Symbolic Z-matrix:
 Charge =  0 Multiplicity = 1

 SCF Done:  E(RB3LYP) =  -417.887432292     A.U. after   12 cycles
 SCF Done:  E(RB3LYP) =  -417.895690068     A.U. after   11 cycles
 SCF Done:  E(RB3LYP) =  -417.898831378     A.U. after   10 cycles
 SCF Done:  E(RB3LYP) =  -417.901388286     A.U. after   10 cycles
 SCF Done:  E(RB3LYP) =  -417.902436937     A.U. after   10 cycles
 SCF Done:  E(RB3LYP) =  -417.902694263     A.U. after   10 cycles
 SCF Done:  E(RB3LYP) =  -417.902746155     A.U. after    9 cycles
 SCF Done:  E(RB3LYP) =  -417.902756026     A.U. after    8 cycles
 SCF Done:  E(RB3LYP) =  -417.902757466     A.U. after    7 cycles
 SCF Done:  E(RB3LYP) =  -417.902757783     A.U. after    6 cycles
 Optimization completed.
    -- Stationary point found.
 Normal termination of Gaussian 16 at Tue Jun  1 11:06:56 2021.

 ----------------------------------------------------------------------
 #N Geom=AllCheck Guess=TCheck SCRF=Check GenChk RB3LYP/6-31G(2df,p) Fr
 eq
 ----------------------------------------------------------------------

 Structure from the checkpoint file:  "CCN1NCNCN1C.chk"
 -------------------
 Title Card Required
 -------------------
 Charge =  0 Multiplicity = 1

                         Standard orientation:
 ---------------------------------------------------------------------
 Center     Atomic      Atomic             Coordinates (Angstroms)
 Number     Number       Type             X           Y           Z
 ---------------------------------------------------------------------
      1          6           0        2.829278   -0.041486    0.408586
      2          6           0        1.573627   -0.875558    0.171776
      3          7           0        0.578634   -0.110646   -0.597906
      4          7           0       -0.520896   -0.883065   -1.133018
      5          6           0       -1.430969   -1.391659   -0.111432
      6          7           0       -2.001683   -0.214933    0.541243
      7          6           0       -0.920805    0.575732    1.140574
      8          7           0        0.067212    0.987236    0.146941
      9          6           0       -0.401616    2.031279   -0.762402
     10          1           0        3.585273   -0.631761    0.935769
     11          1           0        2.592510    0.839978    1.008052
     12          1           0        3.248987    0.296809   -0.543182
     13          1           0        1.194602   -1.258523    1.132049
     14          1           0        1.817507   -1.752097   -0.440120
     15          1           0       -0.123952   -1.625661   -1.697219
     16          1           0       -0.940754   -2.075401    0.615741
     17          1           0       -2.223525   -1.952314   -0.618351
     18          1           0       -2.656665   -0.502704    1.261646
     19          1           0       -0.388881    0.018978    1.932257
     20          1           0       -1.343745    1.476016    1.594914
     21          1           0       -0.687271    2.907618   -0.172024
     22          1           0       -1.257799    1.714609   -1.370424
     23          1           0        0.423755    2.304452   -1.422540
 ---------------------------------------------------------------------

 SCF Done:  E(RB3LYP) =  -417.902757783     A.U. after    1 cycles

 The electronic state is 1-A.
 Alpha  occ. eigenvalues --  -14.35897 -14.33677 -14.33161 -14.31101 -10.22790
 Alpha  occ. eigenvalues --  -10.22505 -10.20184 -10.18193 -10.16575  -1.01191
 Alpha  occ. eigenvalues --   -0.89507  -0.88060  -0.78384  -0.70865  -0.68469
 Alpha  occ. eigenvalues --   -0.65069  -0.61775  -0.54072  -0.52676  -0.48512
 Alpha  occ. eigenvalues --   -0.47387  -0.45824  -0.44853  -0.43690  -0.42371
 Alpha  occ. eigenvalues --   -0.41187  -0.38656  -0.37385  -0.36353  -0.35899
 Alpha  occ. eigenvalues --   -0.35104  -0.33819  -0.25727  -0.23554  -0.21663
 Alpha  occ. eigenvalues --   -0.19640
 Alpha virt. eigenvalues --    0.07440   0.10181   0.11339   0.11978   0.12794
 Alpha virt. eigenvalues --    0.14900   0.15061   0.15756   0.16417   0.17343
 Alpha virt. eigenvalues --    0.17820   0.18530   0.19369   0.20035   0.21476

 Mulliken charges:
               1
     1  C   -0.373514
     2  C   -0.110292
     3  N   -0.090832
     4  N   -0.254549
     5  C   -0.110951
     6  N   -0.273138
     7  C   -0.134578
     8  N   -0.040130
     9  C   -0.295880
    10  H    0.105196
    11  H    0.131637
    12  H    0.119829
    13  H    0.085769
    14  H    0.090509
    15  H    0.224157
    16  H    0.065351
    17  H    0.103641
    18  H    0.214537
    19  H    0.084862
    20  H    0.106702
    21  H    0.104945
    22  H    0.127232
    23  H    0.119494
 Sum of Mulliken charges =  -0.00000

 Dipole moment (field-independent basis, Debye):
    X=             -0.2890    Y=             -1.7010    Z=              1.3562  Tot=              2.1946
 Quadrupole moment (field-independent basis, Debye-Ang):
   XX=            -56.4170   YY=            -52.3491   ZZ=            -55.6479
   XY=              0.3149   XZ=             -3.4267   YZ=              1.5121

  Exact polarizability:  89.766   0.330  85.326  -1.034   1.600  74.208
 Approx polarizability: 118.398  -0.015 119.530  -1.761   3.512 113.530

                      1                      2                      3
                      A                      A                      A
 Frequencies --     82.2271               139.6560               183.7211
 Red. masses --      2.2227                 2.5696                 1.3300
 Frc consts  --      0.0089                 0.0295                 0.0264
 IR Inten    --      0.1625                 0.9752                 1.8338

                      4                      5                      6
                      A                      A                      A
 Frequencies --    187.3635               209.6883               250.4960
 Red. masses --      1.7202                 1.3518                 2.0156
 Frc consts  --      0.0356                 0.0350                 0.0745
 IR Inten    --      2.7003                 0.9532                 2.6192

                      7                      8                      9
                      A                      A                      A
 Frequencies --    300.5061               349.8264               425.3539
 Red. masses --      2.2530                 2.6382                 1.9964
 Frc consts  --      0.1199                 0.1902                 0.2128
 IR Inten    --      8.5616                 5.5815                 5.6615

                     10                     11                     12
                      A                      A                      A
 Frequencies --    452.4445               488.5381               518.3621
 Red. masses --      2.3570                 2.9921                 2.9556
 Frc consts  --      0.2843                 0.4207                 0.4679
 IR Inten    --      3.3678                18.7572                24.6791

                     13                     14                     15
                      A                      A                      A
 Frequencies --    558.8088               652.4002               691.6234
 Red. masses --      3.5464                 2.2280                 2.0932
 Frc consts  --      0.6525                 0.5587                 0.5899
 IR Inten    --      0.7656                42.2566                63.6365

                     16                     17                     18
                      A                      A                      A
 Frequencies --    755.8414               816.7737               851.7888
 Red. masses --      2.6356                 1.1875                 2.5534
 Frc consts  --      0.8872                 0.4667                 1.0915
 IR Inten    --     11.1742                 3.2932                41.4424

                     19                     20                     21
                      A                      A                      A
 Frequencies --    913.3261               959.1382               974.1050
 Red. masses --      3.1692                 2.4672                 2.1613
 Frc consts  --      1.5576                 1.3372                 1.2083
 IR Inten    --      6.4474                32.2445                13.5174

                     22                     23                     24
                      A                      A                      A
 Frequencies --   1006.1650              1023.3021              1041.1930
 Red. masses --      2.1128                 2.6393                 2.1720
 Frc consts  --      1.2602                 1.6283                 1.3873
 IR Inten    --     34.0535                 6.4604                14.5785

                     25                     26                     27
                      A                      A                      A
 Frequencies --   1091.6115              1101.8084              1132.9213
 Red. masses --      2.6927                 2.2475                 2.3657
 Frc consts  --      1.8905                 1.6075                 1.7890
 IR Inten    --      1.7499                 8.5981                11.0949

                     28                     29                     30
                      A                      A                      A
 Frequencies --   1143.2617              1164.9722              1185.2896
 Red. masses --      1.7747                 1.7428                 1.7364
 Frc consts  --      1.3667                 1.3936                 1.4373
 IR Inten    --      8.6273                 7.1818                 4.8021

                     31                     32                     33
                      A                      A                      A
 Frequencies --   1206.2361              1241.6791              1264.5017
 Red. masses --      1.7954                 2.2393                 1.3413
 Frc consts  --      1.5391                 2.0341                 1.2637
 IR Inten    --      5.9193                10.4324                 4.6817

                     34                     35                     36
                      A                      A                      A
 Frequencies --   1298.7667              1324.8213              1349.1298
 Red. masses --      1.1481                 1.3355                 1.3485
 Frc consts  --      1.1410                 1.3811                 1.4462
 IR Inten    --      7.7788                16.5386                 7.7066

                     37                     38                     39
                      A                      A                      A
 Frequencies --   1383.5162              1401.8876              1424.1548
 Red. masses --      1.3288                 1.3051                 1.3360
 Frc consts  --      1.4986                 1.5112                 1.5965
 IR Inten    --      7.6674                 7.8292                22.3282

                     40                     41                     42
                      A                      A                      A
 Frequencies --   1437.7694              1455.9336              1472.5066
 Red. masses --      1.1782                 1.3048                 1.0705
 Frc consts  --      1.4350                 1.6296                 1.3676
 IR Inten    --      5.5030                 2.7020                 3.2317

                     43                     44                     45
                      A                      A                      A
 Frequencies --   1481.1879              1482.5062              1488.7345
 Red. masses --      1.0947                 1.1521                 1.0804
 Frc consts  --      1.4150                 1.4919                 1.4108
 IR Inten    --      1.7013                12.1300                 2.9034

                     46                     47                     48
                      A                      A                      A
 Frequencies --   1506.0808              1512.4122              1515.6144
 Red. masses --      1.0792                 1.0568                 1.1175
 Frc consts  --      1.4423                 1.4242                 1.5124
 IR Inten    --      3.2952                 2.9798                 5.4594

                     49                     50                     51
                      A                      A                      A
 Frequencies --   1518.9297              2849.5210              2937.1301
 Red. masses --      1.0846                 1.0712                 1.0721
 Frc consts  --      1.4743                 5.1246                 5.4489
 IR Inten    --      3.2501                98.8404                57.4834

                     52                     53                     54
                      A                      A                      A
 Frequencies --   2980.6716              3023.0179              3043.9144
 Red. masses --      1.0678                 1.0361                 1.0452
 Frc consts  --      5.5893                 5.5789                 5.7057
 IR Inten    --     75.9371                43.5477                25.3120

                     55                     56                     57
                      A                      A                      A
 Frequencies --   3048.0884              3059.8255              3081.3086
 Red. masses --      1.0810                 1.0874                 1.0916
 Frc consts  --      5.9173                 5.9982                 6.1062
 IR Inten    --     28.0080                40.2584                16.8858

                     58                     59                     60
                      A                      A                      A
 Frequencies --   3089.6968              3113.7686              3128.5759
 Red. masses --      1.0983                 1.1016                 1.1012
 Frc consts  --      6.1776                 6.2931                 6.3504
 IR Inten    --     39.8028                27.4592                20.5362

                     61                     62                     63
                      A                      A                      A
 Frequencies --   3134.1346              3514.8938              3544.9289
 Red. masses --      1.1008                 1.0739                 1.0749
 Frc consts  --      6.3707                 7.8172                 7.9588
 IR Inten    --     20.6106                 0.2326                 0.0840

 - Thermochemistry -
 -------------------
 Temperature   298.150 Kelvin.  Pressure   1.00000 Atm.
 Atom     1 has atomic number  6 and mass  12.00000

 Molecular mass:   130.12185 amu.
 Principal axes and moments of inertia in atomic units:
                           1         2         3
     Eigenvalues --   782.218741253.567491524.21976
           X            0.99996  -0.00852   0.00404
           Y            0.00864   0.99953  -0.02952
           Z           -0.00379   0.02956   0.99956
 This molecule is an asymmetric top.
 Rotational symmetry number  1.
 Warning -- assumption of classical behavior for rotation
           may cause significant error
 Rotational temperatures (Kelvin)      0.11073     0.06909     0.05683
 Rotational constants (GHZ):           2.30721     1.43968     1.18404
 Zero-point vibrational energy     544111.6 (Joules/Mol)
                                  130.04580 (Kcal/Mol)
 Warning -- explicit consideration of  13 degrees of freedom as
           vibrations may cause significant error
 Vibrational temperatures:    118.31   200.93   264.33   269.57   301.69
          (Kelvin)            360.41   432.36   503.32   611.99   650.97
                              702.90   745.81   804.00   938.66   995.09
                             1087.49  1175.16  1225.53  1314.07  1379.99
                             1401.52  1447.65  1472.30  1498.04  1570.59
                             1585.26  1630.02  1644.90  1676.14  1705.37
                             1735.50  1786.50  1819.34  1868.64  1906.12
                             1941.10  1990.57  2017.00  2049.04  2068.63
                             2094.76  2118.61  2131.10  2133.00  2141.96
                             2166.91  2176.02  2180.63  2185.40  4099.83
                             4225.88  4288.52  4349.45  4379.51  4385.52
                             4402.41  4433.32  4445.38  4480.02  4501.32
                             4509.32  5057.15  5100.36

 Zero-point correction=                           0.207241 (Hartree/Particle)
 Thermal correction to Energy=                    0.216654
 Thermal correction to Enthalpy=                  0.217598
 Thermal correction to Gibbs Free Energy=         0.173454
 Sum of electronic and zero-point Energies=           -417.695517
 Sum of electronic and thermal Energies=              -417.686104
 Sum of electronic and thermal Enthalpies=            -417.685159
 Sum of electronic and thermal Free Energies=         -417.729304

                     E (Thermal)             CV                S
                      KCal/Mol        Cal/Mol-Kelvin    Cal/Mol-Kelvin
 Total                  135.953             36.392             92.910
 Electronic               0.000              0.000              0.000
 Translational            0.889              2.981             40.503
 Rotational               0.889              2.981             28.793
 Vibrational            134.175             30.431             23.614
 Vibration     1          0.600              1.961              3.837
 Vibration     2          0.615              1.914              2.809
 Vibration     3          0.631              1.862              2.290
 Vibration     4          0.632              1.857              2.254
 Vibration     5          0.642              1.826              2.046
 Vibration     6          0.663              1.762              1.727
 Vibration     7          0.693              1.673              1.414
 Vibration     8          0.727              1.576              1.167
 Vibration     9          0.787              1.415              0.874
 Vibration    10          0.811              1.355              0.788
 Vibration    11          0.844              1.275              0.687
 Vibration    12          0.873              1.209              0.614
 Vibration    13          0.914              1.120              0.526

 Optimization completed.
    -- Stationary point found.
 Normal termination of Gaussian 16 at Tue Jun  1 11:54:21 2021.
