 Gaussian 16, Revision A.03,
 Gaussian 16:  ES64L-G16RevA.03 25-Dec-2016

 -----------------------------
 # opt freq b3lyp/6-31g(2df,p)
 -----------------------------

 -------------------
 Title Card Required
 -------------------
 Symbolic Z-matrix:
 Charge =  0 Multiplicity = 1

 SCF Done:  E(RB3LYP) =  -401.916837972     A.U. after   13 cycles
 SCF Done:  E(RB3LYP) =  -401.921255119     A.U. after   12 cycles
 SCF Done:  E(RB3LYP) =  -401.921967176     A.U. after   12 cycles
 SCF Done:  E(RB3LYP) =  -401.923139303     A.U. after   12 cycles
 SCF Done:  E(RB3LYP) =  -401.924281286     A.U. after   13 cycles
 SCF Done:  E(RB3LYP) =  -401.925313567     A.U. after   12 cycles
 SCF Done:  E(RB3LYP) =  -401.926128599     A.U. after   12 cycles
 SCF Done:  E(RB3LYP) =  -401.926262448     A.U. after   11 cycles
 SCF Done:  E(RB3LYP) =  -401.926312549     A.U. after   10 cycles
 SCF Done:  E(RB3LYP) =  -401.926326504     A.U. after   10 cycles
 SCF Done:  E(RB3LYP) =  -401.926329553     A.U. after    9 cycles
 SCF Done:  E(RB3LYP) =  -401.926330583     A.U. after    8 cycles
 SCF Done:  E(RB3LYP) =  -401.926330814     A.U. after    7 cycles
 SCF Done:  E(RB3LYP) =  -401.926330861     A.U. after    6 cycles
 Optimization completed.
    -- Stationary point found.
 Normal termination of Gaussian 16 at Mon May 31 12:43:24 2021.

 ----------------------------------------------------------------------
 #N Geom=AllCheck Guess=TCheck SCRF=Check GenChk RB3LYP/6-31G(2df,p) Fr
 eq
 ----------------------------------------------------------------------

 Structure from the checkpoint file:  "CCNCNdCCpCpN.chk"
 -------------------
 Title Card Required
 -------------------
 Charge =  0 Multiplicity = 1

                         Standard orientation:
 ---------------------------------------------------------------------
 Center     Atomic      Atomic             Coordinates (Angstroms)
 Number     Number       Type             X           Y           Z
 ---------------------------------------------------------------------
      1          6           0       -4.377155    0.547954   -0.366829
      2          6           0       -3.297317   -0.390001    0.164342
      3          7           0       -1.966459    0.142916   -0.100564
      4          6           0       -0.897192   -0.689615    0.427587
      5          7           0        0.354552    0.033692    0.319122
      6          6           0        1.316522   -0.519195   -0.286015
      7          6           0        2.670362    0.132051   -0.458405
      8          6           0        2.795471    1.471783    0.271226
      9          7           0        3.686979   -0.875860   -0.111908
     10          1           0       -5.373995    0.129190   -0.199638
     11          1           0       -4.244098    0.719961   -1.438637
     12          1           0       -4.336504    1.520117    0.138119
     13          1           0       -3.375946   -1.363549   -0.338019
     14          1           0       -3.471490   -0.586572    1.240506
     15          1           0       -1.872555    1.067208    0.311761
     16          1           0       -0.889271   -1.644944   -0.126059
     17          1           0       -1.039543   -0.934819    1.499294
     18          1           0        1.246060   -1.527719   -0.723199
     19          1           0        2.781782    0.306190   -1.540229
     20          1           0        2.681728    1.333732    1.351109
     21          1           0        2.021682    2.173134   -0.051518
     22          1           0        3.777149    1.916582    0.077892
     23          1           0        3.697097   -1.007204    0.897075
     24          1           0        4.608253   -0.524420   -0.356440
 ---------------------------------------------------------------------

 SCF Done:  E(RB3LYP) =  -401.926330861     A.U. after    1 cycles

 The electronic state is 1-A.
 Alpha  occ. eigenvalues --  -14.31759 -14.31248 -14.30409 -10.22386 -10.21772
 Alpha  occ. eigenvalues --  -10.21524 -10.20093 -10.17104 -10.16905  -0.93306
 Alpha  occ. eigenvalues --   -0.89170  -0.86998  -0.74740  -0.72611  -0.66821
 Alpha  occ. eigenvalues --   -0.62219  -0.60031  -0.54080  -0.49781  -0.48993
 Alpha  occ. eigenvalues --   -0.46464  -0.45906  -0.43587  -0.42614  -0.40792
 Alpha  occ. eigenvalues --   -0.40361  -0.38992  -0.36760  -0.35990  -0.35370
 Alpha  occ. eigenvalues --   -0.34318  -0.33196  -0.29607  -0.25005  -0.24229
 Alpha  occ. eigenvalues --   -0.21664
 Alpha virt. eigenvalues --    0.00060   0.09057   0.09642   0.11414   0.12799
 Alpha virt. eigenvalues --    0.13215   0.13998   0.14866   0.16098   0.16414
 Alpha virt. eigenvalues --    0.17020   0.17861   0.18114   0.18923   0.19800

 Mulliken charges:
               1
     1  C   -0.386672
     2  C   -0.096277
     3  N   -0.284754
     4  C   -0.081843
     5  N   -0.168767
     6  C    0.050964
     7  C   -0.024935
     8  C   -0.382649
     9  N   -0.517623
    10  H    0.113054
    11  H    0.127033
    12  H    0.111818
    13  H    0.101324
    14  H    0.073438
    15  H    0.215566
    16  H    0.087324
    17  H    0.080319
    18  H    0.089314
    19  H    0.097758
    20  H    0.115982
    21  H    0.128543
    22  H    0.097605
    23  H    0.225216
    24  H    0.228263
 Sum of Mulliken charges =  -0.00000

 Dipole moment (field-independent basis, Debye):
    X=              0.6895    Y=              0.1272    Z=              0.7106  Tot=              0.9983
 Quadrupole moment (field-independent basis, Debye-Ang):
   XX=            -48.5724   YY=            -58.3449   ZZ=            -57.0486
   XY=              2.6684   XZ=             -0.3995   YZ=             -0.9739

  Exact polarizability: 122.603  -0.984  80.685  -5.021   0.808  72.837
 Approx polarizability: 140.261  -4.588 117.807 -11.120   3.422 113.109

                      1                      2                      3
                      A                      A                      A
 Frequencies --     31.6394                69.4490                70.1816
 Red. masses --      3.0240                 3.5827                 2.0499
 Frc consts  --      0.0018                 0.0102                 0.0059
 IR Inten    --      0.0494                 1.8255                 1.4696

                      4                      5                      6
                      A                      A                      A
 Frequencies --    103.3164               131.1818               198.6133
 Red. masses --      2.2712                 3.0914                 2.3645
 Frc consts  --      0.0143                 0.0313                 0.0550
 IR Inten    --      0.3897                 1.3095                 7.7590

                      7                      8                      9
                      A                      A                      A
 Frequencies --    218.1955               237.2091               254.8322
 Red. masses --      2.9562                 1.1246                 1.1672
 Frc consts  --      0.0829                 0.0373                 0.0447
 IR Inten    --      1.7607                 2.2726                 2.0117

                     10                     11                     12
                      A                      A                      A
 Frequencies --    289.1458               315.7968               393.9309
 Red. masses --      1.1412                 3.0213                 2.9160
 Frc consts  --      0.0562                 0.1775                 0.2666
 IR Inten    --     42.8320                 9.5125                 1.3362

                     13                     14                     15
                      A                      A                      A
 Frequencies --    408.2417               466.9636               553.1043
 Red. masses --      2.6043                 2.6020                 3.4868
 Frc consts  --      0.2557                 0.3343                 0.6285
 IR Inten    --      8.7344                 0.4470                 0.3909

                     16                     17                     18
                      A                      A                      A
 Frequencies --    621.6131               789.9178               817.7817
 Red. masses --      2.9561                 1.2713                 1.1720
 Frc consts  --      0.6730                 0.4674                 0.4618
 IR Inten    --      1.8648                70.1161                 5.5090

                     19                     20                     21
                      A                      A                      A
 Frequencies --    832.5297               887.9698               927.8747
 Red. masses --      2.9082                 1.4678                 1.5068
 Frc consts  --      1.1876                 0.6819                 0.7643
 IR Inten    --     17.3690               149.6583                 1.9235

                     22                     23                     24
                      A                      A                      A
 Frequencies --    941.1653               972.8140              1021.6491
 Red. masses --      1.3743                 1.6639                 1.4060
 Frc consts  --      0.7172                 0.9278                 0.8647
 IR Inten    --      1.6128                 4.8156                 5.5021

                     25                     26                     27
                      A                      A                      A
 Frequencies --   1039.2254              1062.7775              1074.7827
 Red. masses --      2.8278                 3.0095                 1.5666
 Frc consts  --      1.7993                 2.0028                 1.0663
 IR Inten    --      8.1703                 7.0695                11.2197

                     28                     29                     30
                      A                      A                      A
 Frequencies --   1135.6543              1144.7524              1158.1387
 Red. masses --      2.8174                 2.1433                 2.1359
 Frc consts  --      2.1409                 1.6548                 1.6879
 IR Inten    --     16.5858                22.5807                36.3043

                     31                     32                     33
                      A                      A                      A
 Frequencies --   1164.3516              1209.4305              1219.4252
 Red. masses --      1.7796                 1.7328                 1.8210
 Frc consts  --      1.4214                 1.4933                 1.5954
 IR Inten    --     27.3173                13.1633                 8.1713

                     34                     35                     36
                      A                      A                      A
 Frequencies --   1255.9173              1306.6536              1346.8997
 Red. masses --      1.2430                 1.1676                 1.3557
 Frc consts  --      1.1552                 1.1746                 1.4491
 IR Inten    --      5.7678                 3.7684                 9.8583

                     37                     38                     39
                      A                      A                      A
 Frequencies --   1356.7312              1372.1648              1398.7900
 Red. masses --      1.2813                 1.2656                 1.3698
 Frc consts  --      1.3896                 1.4040                 1.5791
 IR Inten    --     47.6958                13.1472                 6.0749

                     40                     41                     42
                      A                      A                      A
 Frequencies --   1405.0776              1410.3027              1429.9648
 Red. masses --      1.2391                 1.2950                 1.4424
 Frc consts  --      1.4413                 1.5176                 1.7377
 IR Inten    --      6.0953                16.9307                 7.2210

                     43                     44                     45
                      A                      A                      A
 Frequencies --   1475.1798              1483.7287              1492.5127
 Red. masses --      1.1785                 1.0470                 1.0729
 Frc consts  --      1.5110                 1.3581                 1.4082
 IR Inten    --     68.3440                 3.0772                 3.8398

                     46                     47                     48
                      A                      A                      A
 Frequencies --   1495.2222              1499.7764              1514.3147
 Red. masses --      1.0625                 1.0702                 1.0949
 Frc consts  --      1.3995                 1.4182                 1.4793
 IR Inten    --     21.0653                 3.4362                 0.5864

                     49                     50                     51
                      A                      A                      A
 Frequencies --   1528.5648              1661.2078              1766.3612
 Red. masses --      1.0942                 1.0928                 9.1281
 Frc consts  --      1.5063                 1.7769                16.7799
 IR Inten    --      3.6713                17.2991                85.0518

                     52                     53                     54
                      A                      A                      A
 Frequencies --   2893.0275              2908.1036              2952.4135
 Red. masses --      1.0665                 1.0738                 1.0910
 Frc consts  --      5.2590                 5.3505                 5.6032
 IR Inten    --     48.1178               119.0881                48.6344

                     55                     56                     57
                      A                      A                      A
 Frequencies --   2986.6162              2999.4757              3024.7938
 Red. masses --      1.0813                 1.0857                 1.0817
 Frc consts  --      5.6829                 5.7551                 5.8311
 IR Inten    --     17.2788                57.9859                22.1398

                     58                     59                     60
                      A                      A                      A
 Frequencies --   3033.9737              3036.2226              3099.0113
 Red. masses --      1.0396                 1.0357                 1.0990
 Frc consts  --      5.6380                 5.6254                 6.2185
 IR Inten    --     32.0595                19.3388                38.4257

                     61                     62                     63
                      A                      A                      A
 Frequencies --   3106.4208              3118.7832              3121.0945
 Red. masses --      1.1020                 1.1022                 1.1003
 Frc consts  --      6.2656                 6.3166                 6.3153
 IR Inten    --     30.0775                27.2199                21.7698

                     64                     65                     66
                      A                      A                      A
 Frequencies --   3476.8590              3504.1941              3558.2717
 Red. masses --      1.0496                 1.0731                 1.0915
 Frc consts  --      7.4759                 7.7633                 8.1422
 IR Inten    --      0.9278                 0.2297                 0.0729

 - Thermochemistry -
 -------------------
 Temperature   298.150 Kelvin.  Pressure   1.00000 Atm.
 Atom     1 has atomic number  6 and mass  12.00000

 Molecular mass:   129.12660 amu.
 Principal axes and moments of inertia in atomic units:
                           1         2         3
     Eigenvalues --   348.427903585.592563775.81896
           X            0.99999   0.00517   0.00170
           Y           -0.00516   0.99998  -0.00386
           Z           -0.00172   0.00385   0.99999
 This molecule is an asymmetric top.
 Rotational symmetry number  1.
 Rotational temperatures (Kelvin)      0.24858     0.02416     0.02294
 Rotational constants (GHZ):           5.17967     0.50333     0.47797
 Zero-point vibrational energy     566924.0 (Joules/Mol)
                                  135.49808 (Kcal/Mol)
 Warning -- explicit consideration of  15 degrees of freedom as
           vibrations may cause significant error
 Vibrational temperatures:     45.52    99.92   100.98   148.65   188.74
          (Kelvin)            285.76   313.93   341.29   366.65   416.02
                              454.36   566.78   587.37   671.86   795.79
                              894.36  1136.52  1176.61  1197.82  1277.59
                             1335.00  1354.13  1399.66  1469.93  1495.21
                             1529.10  1546.37  1633.95  1647.04  1666.30
                             1675.24  1740.10  1754.48  1806.98  1879.98
                             1937.89  1952.03  1974.24  2012.55  2021.59
                             2029.11  2057.40  2122.45  2134.75  2147.39
                             2151.29  2157.84  2178.76  2199.26  2390.11
                             2541.40  4162.42  4184.11  4247.86  4297.07
                             4315.58  4352.00  4365.21  4368.45  4458.79
                             4469.45  4487.23  4490.56  5002.42  5041.75
                             5119.56

 Zero-point correction=                           0.215930 (Hartree/Particle)
 Thermal correction to Energy=                    0.227517
 Thermal correction to Enthalpy=                  0.228461
 Thermal correction to Gibbs Free Energy=         0.177716
 Sum of electronic and zero-point Energies=           -401.710401
 Sum of electronic and thermal Energies=              -401.698814
 Sum of electronic and thermal Enthalpies=            -401.697870
 Sum of electronic and thermal Free Energies=         -401.748615

                     E (Thermal)             CV                S
                      KCal/Mol        Cal/Mol-Kelvin    Cal/Mol-Kelvin
 Total                  142.769             40.727            106.801
 Electronic               0.000              0.000              0.000
 Translational            0.889              2.981             40.480
 Rotational               0.889              2.981             29.935
 Vibrational            140.991             34.766             36.386
 Vibration     1          0.594              1.983              5.724
 Vibration     2          0.598              1.969              4.169
 Vibration     3          0.598              1.968              4.148
 Vibration     4          0.605              1.947              3.391
 Vibration     5          0.612              1.922              2.929
 Vibration     6          0.637              1.842              2.146
 Vibration     7          0.646              1.813              1.974
 Vibration     8          0.656              1.784              1.824
 Vibration     9          0.665              1.755              1.697
 Vibration    10          0.686              1.694              1.479
 Vibration    11          0.703              1.643              1.332
 Vibration    12          0.761              1.483              0.985
 Vibration    13          0.773              1.452              0.933
 Vibration    14          0.824              1.323              0.746
 Vibration    15          0.908              1.133              0.538

                           ! Non-Optimized Parameters !
 Normal termination of Gaussian 16 at Mon May 31 13:12:39 2021.
