 Gaussian 16, Revision A.03,
 Gaussian 16:  ES64L-G16RevA.03 25-Dec-2016

 -----------------------------
 # opt freq b3lyp/6-31g(2df,p)
 -----------------------------

 -------------------
 Title Card Required
 -------------------
 Symbolic Z-matrix:
 Charge =  0 Multiplicity = 1

 SCF Done:  E(RB3LYP) =  -496.562952461     A.U. after   13 cycles
 SCF Done:  E(RB3LYP) =  -496.568204649     A.U. after   11 cycles
 SCF Done:  E(RB3LYP) =  -496.569078749     A.U. after   11 cycles
 SCF Done:  E(RB3LYP) =  -496.569214205     A.U. after   10 cycles
 SCF Done:  E(RB3LYP) =  -496.569266510     A.U. after   10 cycles
 SCF Done:  E(RB3LYP) =  -496.569332214     A.U. after   10 cycles
 SCF Done:  E(RB3LYP) =  -496.569251203     A.U. after    8 cycles
 SCF Done:  E(RB3LYP) =  -496.571247149     A.U. after   11 cycles
 SCF Done:  E(RB3LYP) =  -496.569988598     A.U. after   12 cycles
 SCF Done:  E(RB3LYP) =  -496.573412087     A.U. after   12 cycles
 SCF Done:  E(RB3LYP) =  -496.574048725     A.U. after   13 cycles
 SCF Done:  E(RB3LYP) =  -496.572357696     A.U. after   14 cycles
 SCF Done:  E(RB3LYP) =  -496.574621982     A.U. after   12 cycles
 SCF Done:  E(RB3LYP) =  -496.575019155     A.U. after   12 cycles
 SCF Done:  E(RB3LYP) =  -496.575650808     A.U. after   11 cycles
 SCF Done:  E(RB3LYP) =  -496.576312159     A.U. after   11 cycles
 SCF Done:  E(RB3LYP) =  -496.576356538     A.U. after   11 cycles
 SCF Done:  E(RB3LYP) =  -496.576359607     A.U. after    8 cycles
 SCF Done:  E(RB3LYP) =  -496.576360021     A.U. after    7 cycles
 Optimization completed.
    -- Stationary point found.
 Normal termination of Gaussian 16 at Tue Jun  1 08:12:27 2021.

 ----------------------------------------------------------------------
 #N Geom=AllCheck Guess=TCheck SCRF=Check GenChk RB3LYP/6-31G(2df,p) Fr
 eq
 ----------------------------------------------------------------------

 Structure from the checkpoint file:  "CCNCCpNpCCCdNN.chk"
 -------------------
 Title Card Required
 -------------------
 Charge =  0 Multiplicity = 1

                         Standard orientation:
 ---------------------------------------------------------------------
 Center     Atomic      Atomic             Coordinates (Angstroms)
 Number     Number       Type             X           Y           Z
 ---------------------------------------------------------------------
      1          6           0       -5.393630   -0.056488   -0.015699
      2          6           0       -4.075710   -0.793597    0.203964
      3          7           0       -2.937007    0.061485   -0.117310
      4          6           0       -1.643996   -0.559899    0.137680
      5          6           0       -0.478832    0.340120   -0.311962
      6          7           0       -0.473114    1.677751    0.295052
      7          6           0        0.867351   -0.348469   -0.045854
      8          6           0        2.068962    0.395219   -0.654330
      9          6           0        3.367114   -0.313663   -0.413771
     10          7           0        4.309020    0.225191    0.252687
     11          7           0        5.499252   -0.464231    0.366605
     12          1           0       -6.245785   -0.711591    0.188102
     13          1           0       -5.466724    0.302942   -1.046144
     14          1           0       -5.476652    0.810532    0.650439
     15          1           0       -4.030611   -1.672421   -0.452482
     16          1           0       -4.036016   -1.182442    1.239910
     17          1           0       -3.005136    0.910222    0.437169
     18          1           0       -1.606421   -1.500126   -0.427924
     19          1           0       -1.500778   -0.832802    1.203884
     20          1           0       -0.587176    0.496521   -1.393240
     21          1           0       -0.527223    1.609567    1.308595
     22          1           0       -1.274426    2.216168   -0.016632
     23          1           0        0.825662   -1.372595   -0.439783
     24          1           0        1.015328   -0.444066    1.038924
     25          1           0        2.127988    1.404299   -0.242527
     26          1           0        1.906096    0.495199   -1.737725
     27          1           0        3.475110   -1.328559   -0.829680
     28          1           0        5.952976   -0.203329    1.232247
     29          1           0        5.399172   -1.478224    0.307450
 ---------------------------------------------------------------------

 SCF Done:  E(RB3LYP) =  -496.576360021     A.U. after    1 cycles

 The electronic state is 1-A.
 Alpha  occ. eigenvalues --  -14.34449 -14.34224 -14.30963 -14.30789 -10.20615
 Alpha  occ. eigenvalues --  -10.20389 -10.19883 -10.19824 -10.17735 -10.17470
 Alpha  occ. eigenvalues --  -10.17271  -0.97415  -0.90825  -0.87297  -0.80779
 Alpha  occ. eigenvalues --   -0.76071  -0.74306  -0.69146  -0.62929  -0.60241
 Alpha  occ. eigenvalues --   -0.57446  -0.56210  -0.50609  -0.49563  -0.49100
 Alpha  occ. eigenvalues --   -0.47596  -0.45983  -0.44358  -0.43729  -0.41509
 Alpha  occ. eigenvalues --   -0.39818  -0.38865  -0.37665  -0.37036  -0.36292
 Alpha  occ. eigenvalues --   -0.35147  -0.34450  -0.33325  -0.32861  -0.32659
 Alpha  occ. eigenvalues --   -0.25820  -0.23801  -0.21974  -0.21652
 Alpha virt. eigenvalues --    0.02197   0.06957   0.09377   0.09889   0.10568
 Alpha virt. eigenvalues --    0.11370   0.12900   0.13623   0.14348   0.15112
 Alpha virt. eigenvalues --    0.16169   0.16792   0.16895   0.17881   0.18044

 Mulliken charges:
               1
     1  C   -0.389193
     2  C   -0.095526
     3  N   -0.295568
     4  C   -0.139909
     5  C    0.013414
     6  N   -0.510684
     7  C   -0.170455
     8  C   -0.245019
     9  C    0.025558
    10  N   -0.132577
    11  N   -0.426241
    12  H    0.114837
    13  H    0.126622
    14  H    0.109390
    15  H    0.101834
    16  H    0.073374
    17  H    0.195440
    18  H    0.097106
    19  H    0.064215
    20  H    0.086236
    21  H    0.219026
    22  H    0.230829
    23  H    0.088212
    24  H    0.093860
    25  H    0.133084
    26  H    0.097046
    27  H    0.058061
    28  H    0.253136
    29  H    0.223893
 Sum of Mulliken charges =  -0.00000

 Dipole moment (field-independent basis, Debye):
    X=             -1.5667    Y=             -1.9428    Z=              1.5455  Tot=              2.9355
 Quadrupole moment (field-independent basis, Debye-Ang):
   XX=            -69.9317   YY=            -68.3479   ZZ=            -67.5587
   XY=            -10.1957   XZ=              2.5690   YZ=              1.3895

  Exact polarizability: 156.028  -3.418  95.619   9.395   2.449  87.572
 Approx polarizability: 175.781  -0.009 145.519  17.401   6.779 139.319

                      1                      2                      3
                      A                      A                      A
 Frequencies --     33.4446                39.6259                67.9443
 Red. masses --      3.4429                 3.4053                 2.5385
 Frc consts  --      0.0023                 0.0032                 0.0069
 IR Inten    --      0.3292                 1.0878                 0.6818

                      4                      5                      6
                      A                      A                      A
 Frequencies --     73.0589                90.3585               121.5837
 Red. masses --      2.2612                 2.6115                 2.7906
 Frc consts  --      0.0071                 0.0126                 0.0243
 IR Inten    --      2.5623                 3.6587                 0.6596

                      7                      8                      9
                      A                      A                      A
 Frequencies --    143.0384               172.6186               240.6307
 Red. masses --      2.6505                 2.2298                 3.7696
 Frc consts  --      0.0320                 0.0391                 0.1286
 IR Inten    --      1.5131                12.2520                 3.9372

                     10                     11                     12
                      A                      A                      A
 Frequencies --    250.5227               252.9072               289.9123
 Red. masses --      4.0339                 1.1258                 1.6003
 Frc consts  --      0.1492                 0.0424                 0.0792
 IR Inten    --      4.0592                 1.6251                 7.7510

                     13                     14                     15
                      A                      A                      A
 Frequencies --    309.0948               335.0072               403.2298
 Red. masses --      2.0634                 1.7485                 2.9344
 Frc consts  --      0.1162                 0.1156                 0.2811
 IR Inten    --     27.3963                29.1590                 6.2190

                     16                     17                     18
                      A                      A                      A
 Frequencies --    411.8022               438.7277               504.2419
 Red. masses --      1.3553                 2.2557                 2.5603
 Frc consts  --      0.1354                 0.2558                 0.3835
 IR Inten    --     21.5365                 2.0494                 5.6928

                     19                     20                     21
                      A                      A                      A
 Frequencies --    527.3919               605.4054               755.3983
 Red. masses --      2.9052                 2.4098                 1.6053
 Frc consts  --      0.4761                 0.5204                 0.5397
 IR Inten    --     17.8104                 1.4554               328.8143

                     22                     23                     24
                      A                      A                      A
 Frequencies --    777.0227               790.9782               816.6346
 Red. masses --      1.2840                 1.3085                 1.1338
 Frc consts  --      0.4567                 0.4823                 0.4455
 IR Inten    --      9.8037                61.5028                 2.3880

                     25                     26                     27
                      A                      A                      A
 Frequencies --    837.4518               869.8346               907.7988
 Red. masses --      1.6810                 1.9155                 1.5832
 Frc consts  --      0.6946                 0.8539                 0.7687
 IR Inten    --    136.7655                15.1788                 7.4061

                     28                     29                     30
                      A                      A                      A
 Frequencies --    934.0541               960.8904              1002.5961
 Red. masses --      1.6025                 1.6176                 3.1344
 Frc consts  --      0.8237                 0.8800                 1.8564
 IR Inten    --      4.6846                16.7898                 5.3642

                     31                     32                     33
                      A                      A                      A
 Frequencies --   1017.8584              1050.9564              1051.5791
 Red. masses --      1.7307                 1.7192                 3.0529
 Frc consts  --      1.0564                 1.1188                 1.9890
 IR Inten    --      1.3008                 9.1577                 2.7075

                     34                     35                     36
                      A                      A                      A
 Frequencies --   1093.5411              1122.2764              1132.0798
 Red. masses --      1.8777                 2.3527                 2.7148
 Frc consts  --      1.3230                 1.7459                 2.0500
 IR Inten    --      5.0469                 9.7255                25.6538

                     37                     38                     39
                      A                      A                      A
 Frequencies --   1141.7256              1160.7417              1171.0483
 Red. masses --      1.9562                 2.6596                 1.7978
 Frc consts  --      1.5024                 2.1112                 1.4526
 IR Inten    --     40.8575                16.1573                18.4691

                     40                     41                     42
                      A                      A                      A
 Frequencies --   1190.6802              1245.7417              1256.3114
 Red. masses --      1.7670                 1.3897                 1.3876
 Frc consts  --      1.4759                 1.2706                 1.2903
 IR Inten    --     33.4897                10.0738                 1.6677

                     43                     44                     45
                      A                      A                      A
 Frequencies --   1276.3506              1284.9949              1312.5309
 Red. masses --      1.1860                 1.2728                 1.2021
 Frc consts  --      1.1384                 1.2382                 1.2202
 IR Inten    --     16.9054                 0.6391                 3.1346

                     46                     47                     48
                      A                      A                      A
 Frequencies --   1319.1319              1338.5685              1364.5051
 Red. masses --      1.2631                 1.2300                 1.2946
 Frc consts  --      1.2950                 1.2985                 1.4201
 IR Inten    --      8.4499                 3.1765                17.7190

                     49                     50                     51
                      A                      A                      A
 Frequencies --   1384.3358              1402.3077              1418.9806
 Red. masses --      1.5126                 1.2625                 1.3056
 Frc consts  --      1.7078                 1.4627                 1.5488
 IR Inten    --      0.1068                 1.3767                 6.6473

                     52                     53                     54
                      A                      A                      A
 Frequencies --   1422.0320              1424.5096              1473.5973
 Red. masses --      1.4599                 1.5149                 1.0869
 Frc consts  --      1.7394                 1.8111                 1.3905
 IR Inten    --      8.3574                16.6306                 0.8735

                     55                     56                     57
                      A                      A                      A
 Frequencies --   1478.9767              1490.6442              1496.6525
 Red. masses --      1.1416                 1.0986                 1.0480
 Frc consts  --      1.4712                 1.4382                 1.3830
 IR Inten    --     24.9859                 4.3733                14.8790

                     58                     59                     60
                      A                      A                      A
 Frequencies --   1499.0049              1504.0076              1525.5569
 Red. masses --      1.1106                 1.0838                 1.0925
 Frc consts  --      1.4703                 1.4445                 1.4980
 IR Inten    --      7.7908                 9.7013                 2.1157

                     61                     62                     63
                      A                      A                      A
 Frequencies --   1648.8834              1656.0695              1730.2507
 Red. masses --      1.0973                 1.1275                 6.3125
 Frc consts  --      1.7577                 1.8220                11.1344
 IR Inten    --     16.3182                21.7489                 2.0719

                     64                     65                     66
                      A                      A                      A
 Frequencies --   2886.3561              2913.7347              2980.5917
 Red. masses --      1.0721                 1.0737                 1.0822
 Frc consts  --      5.2624                 5.3708                 5.6647
 IR Inten    --     59.0385                96.3521                54.1673

                     67                     68                     69
                      A                      A                      A
 Frequencies --   3000.4634              3008.8804              3025.1789
 Red. masses --      1.0703                 1.0632                 1.0807
 Frc consts  --      5.6774                 5.6710                 5.8270
 IR Inten    --     13.4992                24.6777                29.1042

                     70                     71                     72
                      A                      A                      A
 Frequencies --   3028.0253              3032.9078              3034.5153
 Red. masses --      1.0706                 1.0665                 1.0735
 Frc consts  --      5.7835                 5.7799                 5.8239
 IR Inten    --      9.2760                 6.4050                42.5220

                     73                     74                     75
                      A                      A                      A
 Frequencies --   3051.9819              3097.3920              3118.3501
 Red. masses --      1.0976                 1.0982                 1.1023
 Frc consts  --      6.0238                 6.2075                 6.3152
 IR Inten    --     68.7481                39.2648                26.8050

                     76                     77                     78
                      A                      A                      A
 Frequencies --   3121.8083              3422.4082              3479.1002
 Red. masses --      1.0908                 1.0535                 1.0496
 Frc consts  --      6.2631                 7.2700                 7.4856
 IR Inten    --      9.6704                 7.6451                 0.7346

                     79                     80                     81
                      A                      A                      A
 Frequencies --   3496.6885              3574.8625              3599.6133
 Red. masses --      1.0724                 1.0916                 1.0885
 Frc consts  --      7.7252                 8.2194                 8.3098
 IR Inten    --      1.3287                 0.4302                 9.3497

 - Thermochemistry -
 -------------------
 Temperature   298.150 Kelvin.  Pressure   1.00000 Atm.
 Atom     1 has atomic number  6 and mass  12.00000

 Molecular mass:   158.15315 amu.
 Principal axes and moments of inertia in atomic units:
                           1         2         3
     Eigenvalues --   409.621016610.618806814.25766
           X            1.00000  -0.00253  -0.00089
           Y            0.00253   1.00000   0.00187
           Z            0.00089  -0.00187   1.00000
 This molecule is an asymmetric top.
 Rotational symmetry number  1.
 Rotational temperatures (Kelvin)      0.21145     0.01310     0.01271
 Rotational constants (GHZ):           4.40588     0.27301     0.26485
 Zero-point vibrational energy     687389.2 (Joules/Mol)
                                  164.28996 (Kcal/Mol)
 Warning -- explicit consideration of  20 degrees of freedom as
           vibrations may cause significant error
 Vibrational temperatures:     48.12    57.01    97.76   105.12   130.01
          (Kelvin)            174.93   205.80   248.36   346.21   360.45
                              363.88   417.12   444.72   482.00   580.16
                              592.49   631.23   725.49   758.80   871.04
                             1086.85  1117.96  1138.04  1174.96  1204.91
                             1251.50  1306.12  1343.90  1382.51  1442.51
                             1464.47  1512.09  1512.99  1573.36  1614.71
                             1628.81  1642.69  1670.05  1684.88  1713.12
                             1792.34  1807.55  1836.38  1848.82  1888.44
                             1897.94  1925.90  1963.22  1991.75  2017.61
                             2041.60  2045.99  2049.55  2120.18  2127.92
                             2144.70  2153.35  2156.73  2163.93  2194.94
                             2372.38  2382.71  2489.44  4152.82  4192.21
                             4288.41  4317.00  4329.11  4352.56  4356.65
                             4363.68  4365.99  4391.12  4456.46  4486.61
                             4491.59  4924.08  5005.65  5030.95  5143.43
                             5179.04

 Zero-point correction=                           0.261813 (Hartree/Particle)
 Thermal correction to Energy=                    0.275865
 Thermal correction to Enthalpy=                  0.276809
 Thermal correction to Gibbs Free Energy=         0.219873
 Sum of electronic and zero-point Energies=           -496.314547
 Sum of electronic and thermal Energies=              -496.300495
 Sum of electronic and thermal Enthalpies=            -496.299551
 Sum of electronic and thermal Free Energies=         -496.356487

                     E (Thermal)             CV                S
                      KCal/Mol        Cal/Mol-Kelvin    Cal/Mol-Kelvin
 Total                  173.108             50.194            119.832
 Electronic               0.000              0.000              0.000
 Translational            0.889              2.981             41.084
 Rotational               0.889              2.981             31.290
 Vibrational            171.330             44.233             47.458
 Vibration     1          0.594              1.983              5.614
 Vibration     2          0.594              1.981              5.278
 Vibration     3          0.598              1.969              4.212
 Vibration     4          0.599              1.967              4.069
 Vibration     5          0.602              1.956              3.652
 Vibration     6          0.609              1.931              3.075
 Vibration     7          0.616              1.910              2.763
 Vibration     8          0.626              1.876              2.407
 Vibration     9          0.658              1.778              1.798
 Vibration    10          0.663              1.762              1.727
 Vibration    11          0.664              1.758              1.710
 Vibration    12          0.686              1.692              1.474
 Vibration    13          0.698              1.656              1.367
 Vibration    14          0.716              1.606              1.236
 Vibration    15          0.769              1.463              0.951
 Vibration    16          0.776              1.445              0.920
 Vibration    17          0.799              1.386              0.831
 Vibration    18          0.860              1.241              0.648
 Vibration    19          0.882              1.189              0.593
 Vibration    20          0.964              1.020              0.440

                           ! Non-Optimized Parameters !
 Normal termination of Gaussian 16 at Tue Jun  1 09:05:55 2021.
