 Gaussian 16, Revision A.03,
 Gaussian 16:  ES64L-G16RevA.03 25-Dec-2016

 -----------------------------
 # opt freq b3lyp/6-31g(2df,p)
 -----------------------------

 -------------------
 Title Card Required
 -------------------
 Symbolic Z-matrix:
 Charge =  0 Multiplicity = 1

 SCF Done:  E(RB3LYP) =  -417.938043365     A.U. after   13 cycles
 SCF Done:  E(RB3LYP) =  -417.946007677     A.U. after   11 cycles
 SCF Done:  E(RB3LYP) =  -417.947838886     A.U. after   11 cycles
 SCF Done:  E(RB3LYP) =  -417.948407227     A.U. after   10 cycles
 SCF Done:  E(RB3LYP) =  -417.948873371     A.U. after   11 cycles
 SCF Done:  E(RB3LYP) =  -417.949208752     A.U. after   11 cycles
 SCF Done:  E(RB3LYP) =  -417.949539065     A.U. after   11 cycles
 SCF Done:  E(RB3LYP) =  -417.949649690     A.U. after   10 cycles
 SCF Done:  E(RB3LYP) =  -417.949698421     A.U. after   10 cycles
 SCF Done:  E(RB3LYP) =  -417.949750763     A.U. after   10 cycles
 SCF Done:  E(RB3LYP) =  -417.950151159     A.U. after   10 cycles
 SCF Done:  E(RB3LYP) =  -417.947957390     A.U. after   12 cycles
 SCF Done:  E(RB3LYP) =  -417.950777417     A.U. after   10 cycles
 SCF Done:  E(RB3LYP) =  -417.950875585     A.U. after   10 cycles
 SCF Done:  E(RB3LYP) =  -417.950949421     A.U. after   10 cycles
 SCF Done:  E(RB3LYP) =  -417.950964194     A.U. after    9 cycles
 SCF Done:  E(RB3LYP) =  -417.950971172     A.U. after    9 cycles
 SCF Done:  E(RB3LYP) =  -417.950973111     A.U. after    8 cycles
 SCF Done:  E(RB3LYP) =  -417.950973315     A.U. after    7 cycles
 Optimization completed.
    -- Stationary point found.
 Normal termination of Gaussian 16 at Tue Jun  1 06:45:49 2021.

 ----------------------------------------------------------------------
 #N Geom=AllCheck Guess=TCheck SCRF=Check GenChk RB3LYP/6-31G(2df,p) Fr
 eq
 ----------------------------------------------------------------------

 Structure from the checkpoint file:  "CCNCCpdNpNpCpN.chk"
 -------------------
 Title Card Required
 -------------------
 Charge =  0 Multiplicity = 1

                         Standard orientation:
 ---------------------------------------------------------------------
 Center     Atomic      Atomic             Coordinates (Angstroms)
 Number     Number       Type             X           Y           Z
 ---------------------------------------------------------------------
      1          6           0       -4.055633   -0.236363   -0.048648
      2          6           0       -2.795364    0.612246    0.088495
      3          7           0       -1.597130   -0.204601   -0.084233
      4          6           0       -0.353426    0.542929   -0.007231
      5          6           0        0.849517   -0.400224    0.029601
      6          7           0        0.768299   -1.659111    0.245926
      7          7           0        2.084576    0.171306   -0.233993
      8          6           0        2.385472    1.550759    0.113287
      9          7           0        3.219339   -0.671618   -0.084765
     10          1           0       -4.950946    0.369335    0.118469
     11          1           0       -4.047668   -1.057282    0.673873
     12          1           0       -4.131954   -0.670009   -1.052524
     13          1           0       -2.753832    1.055965    1.091599
     14          1           0       -2.838023    1.458356   -0.622628
     15          1           0       -1.642455   -0.686275   -0.977761
     16          1           0       -0.372795    1.138265    0.915764
     17          1           0       -0.230555    1.264464   -0.833533
     18          1           0       -0.212086   -1.895626    0.398696
     19          1           0        1.566833    2.210186   -0.180423
     20          1           0        3.283596    1.853067   -0.427568
     21          1           0        2.575235    1.683445    1.189462
     22          1           0        3.249308   -1.262929   -0.914184
     23          1           0        2.996354   -1.328874    0.667192
 ---------------------------------------------------------------------

 SCF Done:  E(RB3LYP) =  -417.950973315     A.U. after    1 cycles

 The electronic state is 1-A.
 Alpha  occ. eigenvalues --  -14.36062 -14.32995 -14.32423 -14.27685 -10.23959
 Alpha  occ. eigenvalues --  -10.21950 -10.21347 -10.20877 -10.18058  -0.98919
 Alpha  occ. eigenvalues --   -0.91807  -0.86317  -0.79820  -0.75314  -0.69301
 Alpha  occ. eigenvalues --   -0.66478  -0.61394  -0.55658  -0.50441  -0.48512
 Alpha  occ. eigenvalues --   -0.48191  -0.47581  -0.45365  -0.43694  -0.42594
 Alpha  occ. eigenvalues --   -0.40784  -0.40440  -0.38704  -0.36992  -0.36464
 Alpha  occ. eigenvalues --   -0.35363  -0.31456  -0.26320  -0.24899  -0.23377
 Alpha  occ. eigenvalues --   -0.21545
 Alpha virt. eigenvalues --    0.03878   0.07537   0.09334   0.11287   0.12187
 Alpha virt. eigenvalues --    0.12817   0.13614   0.14723   0.15898   0.16487
 Alpha virt. eigenvalues --    0.17059   0.17384   0.18121   0.18972   0.19552

 Mulliken charges:
               1
     1  C   -0.392093
     2  C   -0.099482
     3  N   -0.295389
     4  C   -0.236726
     5  C    0.337877
     6  N   -0.536956
     7  N   -0.089863
     8  C   -0.305453
     9  N   -0.468111
    10  H    0.118318
    11  H    0.130143
    12  H    0.114431
    13  H    0.106833
    14  H    0.079255
    15  H    0.221065
    16  H    0.125824
    17  H    0.102152
    18  H    0.219415
    19  H    0.123396
    20  H    0.137395
    21  H    0.114654
    22  H    0.246903
    23  H    0.246410
 Sum of Mulliken charges =  -0.00000

 Dipole moment (field-independent basis, Debye):
    X=             -1.9749    Y=              2.0873    Z=             -0.7440  Tot=              2.9682
 Quadrupole moment (field-independent basis, Debye-Ang):
   XX=            -57.5923   YY=            -57.4555   ZZ=            -54.9027
   XY=              1.0158   XZ=              0.2096   YZ=              1.8830

  Exact polarizability: 107.515   2.375  87.518  -0.968  -0.454  64.199
 Approx polarizability: 125.112   4.800 135.834  -2.909  -3.579 100.251

                      1                      2                      3
                      A                      A                      A
 Frequencies --     54.0170                83.7024                90.1993
 Red. masses --      3.2917                 1.7491                 3.1277
 Frc consts  --      0.0057                 0.0072                 0.0150
 IR Inten    --      0.2150                 0.9997                 0.2429

                      4                      5                      6
                      A                      A                      A
 Frequencies --    125.4814               145.6977               151.1939
 Red. masses --      2.5912                 1.3098                 1.2390
 Frc consts  --      0.0240                 0.0164                 0.0167
 IR Inten    --      7.4139                24.3173                 2.9757

                      7                      8                      9
                      A                      A                      A
 Frequencies --    190.2374               251.4201               256.2002
 Red. masses --      1.9165                 1.8750                 1.9337
 Frc consts  --      0.0409                 0.0698                 0.0748
 IR Inten    --      4.3766                12.3553                 3.6343

                     10                     11                     12
                      A                      A                      A
 Frequencies --    260.5854               325.8608               390.1087
 Red. masses --      1.8209                 4.1598                 3.5019
 Frc consts  --      0.0729                 0.2602                 0.3140
 IR Inten    --      2.9135                 2.4306                 5.6430

                     13                     14                     15
                      A                      A                      A
 Frequencies --    442.8788               508.8557               593.8284
 Red. masses --      2.8947                 3.1259                 3.3758
 Frc consts  --      0.3345                 0.4769                 0.7014
 IR Inten    --      8.0882                 2.2672                 6.5988

                     16                     17                     18
                      A                      A                      A
 Frequencies --    628.6639               781.9161               809.7370
 Red. masses --      3.8782                 1.4587                 2.2597
 Frc consts  --      0.9031                 0.5254                 0.8730
 IR Inten    --     17.6725                62.5656                 5.0954

                     19                     20                     21
                      A                      A                      A
 Frequencies --    820.5192               902.5104               927.2004
 Red. masses --      1.2666                 1.2382                 1.7032
 Frc consts  --      0.5024                 0.5942                 0.8627
 IR Inten    --      4.1303                34.2638                 2.2881

                     22                     23                     24
                      A                      A                      A
 Frequencies --    964.4413              1010.6668              1038.6372
 Red. masses --      3.1091                 1.7573                 1.7446
 Frc consts  --      1.7039                 1.0576                 1.1089
 IR Inten    --     25.9231                42.8688                11.7742

                     25                     26                     27
                      A                      A                      A
 Frequencies --   1052.3637              1098.1290              1140.3053
 Red. masses --      2.5580                 1.5615                 1.9072
 Frc consts  --      1.6691                 1.1094                 1.4611
 IR Inten    --     19.8877               128.6270                 6.5221

                     28                     29                     30
                      A                      A                      A
 Frequencies --   1147.7141              1166.0040              1173.7493
 Red. masses --      1.2876                 3.1676                 1.5968
 Frc consts  --      0.9993                 2.5374                 1.2962
 IR Inten    --      5.6570                51.1370                 3.5147

                     31                     32                     33
                      A                      A                      A
 Frequencies --   1246.7502              1266.8556              1311.4547
 Red. masses --      1.6653                 1.2643                 3.1396
 Frc consts  --      1.5251                 1.1956                 3.1815
 IR Inten    --     50.7967                 5.1744                29.3033

                     34                     35                     36
                      A                      A                      A
 Frequencies --   1319.1553              1337.4767              1357.3943
 Red. masses --      1.1937                 1.3894                 1.1644
 Frc consts  --      1.2239                 1.4644                 1.2640
 IR Inten    --      5.1904                90.7910                 5.4302

                     37                     38                     39
                      A                      A                      A
 Frequencies --   1395.1873              1415.3156              1439.5385
 Red. masses --      1.3112                 1.3720                 1.6869
 Frc consts  --      1.5037                 1.6193                 2.0596
 IR Inten    --      2.5848                 4.0334                61.0807

                     40                     41                     42
                      A                      A                      A
 Frequencies --   1465.4844              1480.6067              1482.1092
 Red. masses --      1.4084                 1.1411                 1.0700
 Frc consts  --      1.7821                 1.4738                 1.3848
 IR Inten    --     25.7987                10.5189                15.0122

                     43                     44                     45
                      A                      A                      A
 Frequencies --   1494.1364              1497.5718              1504.6425
 Red. masses --      1.0689                 1.0573                 1.1207
 Frc consts  --      1.4060                 1.3971                 1.4949
 IR Inten    --      7.7109                 7.4504                13.7338

                     46                     47                     48
                      A                      A                      A
 Frequencies --   1518.2111              1525.4018              1685.1724
 Red. masses --      1.1130                 1.0937                 7.9127
 Frc consts  --      1.5115                 1.4993                13.2392
 IR Inten    --     15.1373                 5.8136               163.9069

                     49                     50                     51
                      A                      A                      A
 Frequencies --   1704.5869              2925.6128              2947.2455
 Red. masses --      1.0849                 1.0733                 1.0705
 Frc consts  --      1.8572                 5.4125                 5.4787
 IR Inten    --     31.3450                68.6530                68.7802

                     52                     53                     54
                      A                      A                      A
 Frequencies --   2988.4952              3029.5148              3032.3032
 Red. masses --      1.0563                 1.0865                 1.0634
 Frc consts  --      5.5585                 5.8751                 5.7607
 IR Inten    --     67.3158                 8.2874                12.6562

                     55                     56                     57
                      A                      A                      A
 Frequencies --   3037.2398              3099.5797              3101.2976
 Red. masses --      1.0596                 1.0766                 1.0987
 Frc consts  --      5.7589                 6.0941                 6.2262
 IR Inten    --     40.4889                24.1452                35.0748

                     58                     59                     60
                      A                      A                      A
 Frequencies --   3121.2918              3142.8476              3415.7175
 Red. masses --      1.1024                 1.1029                 1.0536
 Frc consts  --      6.3279                 6.4187                 7.2427
 IR Inten    --     24.4095                17.5538                 6.6316

                     61                     62                     63
                      A                      A                      A
 Frequencies --   3481.7362              3490.0298              3504.5059
 Red. masses --      1.0727                 1.0856                 1.0735
 Frc consts  --      7.6615                 7.7904                 7.7682
 IR Inten    --     19.2584                 1.8218                 0.3913

 - Thermochemistry -
 -------------------
 Temperature   298.150 Kelvin.  Pressure   1.00000 Atm.
 Atom     1 has atomic number  6 and mass  12.00000

 Molecular mass:   130.12185 amu.
 Principal axes and moments of inertia in atomic units:
                           1         2         3
     Eigenvalues --   438.126182667.164893027.69412
           X            0.99997   0.00721   0.00223
           Y           -0.00724   0.99990   0.01255
           Z           -0.00214  -0.01256   0.99992
 This molecule is an asymmetric top.
 Rotational symmetry number  1.
 Warning -- assumption of classical behavior for rotation
           may cause significant error
 Rotational temperatures (Kelvin)      0.19769     0.03247     0.02861
 Rotational constants (GHZ):           4.11923     0.67665     0.59608
 Zero-point vibrational energy     540097.8 (Joules/Mol)
                                  129.08646 (Kcal/Mol)
 Warning -- explicit consideration of  15 degrees of freedom as
           vibrations may cause significant error
 Vibrational temperatures:     77.72   120.43   129.78   180.54   209.63
          (Kelvin)            217.53   273.71   361.74   368.61   374.92
                              468.84   561.28   637.20   732.13   854.39
                              904.51  1125.00  1165.03  1180.54  1298.51
                             1334.03  1387.62  1454.12  1494.37  1514.12
                             1579.96  1640.64  1651.30  1677.62  1688.76
                             1793.80  1822.72  1886.89  1897.97  1924.33
                             1952.99  2007.36  2036.32  2071.17  2108.51
                             2130.26  2132.42  2149.73  2154.67  2164.84
                             2184.37  2194.71  2424.59  2452.52  4209.30
                             4240.43  4299.78  4358.80  4362.81  4369.91
                             4459.60  4462.08  4490.84  4521.86  4914.46
                             5009.44  5021.37  5042.20

 Zero-point correction=                           0.205712 (Hartree/Particle)
 Thermal correction to Energy=                    0.217094
 Thermal correction to Enthalpy=                  0.218039
 Thermal correction to Gibbs Free Energy=         0.168448
 Sum of electronic and zero-point Energies=           -417.745261
 Sum of electronic and thermal Energies=              -417.733879
 Sum of electronic and thermal Enthalpies=            -417.732935
 Sum of electronic and thermal Free Energies=         -417.782525

                     E (Thermal)             CV                S
                      KCal/Mol        Cal/Mol-Kelvin    Cal/Mol-Kelvin
 Total                  136.229             39.860            104.371
 Electronic               0.000              0.000              0.000
 Translational            0.889              2.981             40.503
 Rotational               0.889              2.981             29.649
 Vibrational            134.451             33.899             34.219
 Vibration     1          0.596              1.976              4.665
 Vibration     2          0.601              1.960              3.802
 Vibration     3          0.602              1.956              3.656
 Vibration     4          0.610              1.928              3.014
 Vibration     5          0.617              1.907              2.728
 Vibration     6          0.619              1.901              2.657
 Vibration     7          0.634              1.853              2.226
 Vibration     8          0.663              1.760              1.721
 Vibration     9          0.666              1.752              1.688
 Vibration    10          0.669              1.745              1.658
 Vibration    11          0.710              1.624              1.281
 Vibration    12          0.758              1.491              1.000
 Vibration    13          0.803              1.377              0.818
 Vibration    14          0.864              1.230              0.636
 Vibration    15          0.951              1.045              0.460

 Optimization completed.
    -- Stationary point found.
 Normal termination of Gaussian 16 at Tue Jun  1 07:15:18 2021.
