 Gaussian 16, Revision A.03,
 Gaussian 16:  ES64L-G16RevA.03 25-Dec-2016

 -----------------------------
 # opt freq b3lyp/6-31g(2df,p)
 -----------------------------

 -------------------
 Title Card Required
 -------------------
 Symbolic Z-matrix:
 Charge =  0 Multiplicity = 1

 SCF Done:  E(RB3LYP) =  -417.929076046     A.U. after   13 cycles
 SCF Done:  E(RB3LYP) =  -417.934682579     A.U. after   11 cycles
 SCF Done:  E(RB3LYP) =  -417.935526872     A.U. after   11 cycles
 SCF Done:  E(RB3LYP) =  -417.935988960     A.U. after   12 cycles
 SCF Done:  E(RB3LYP) =  -417.936480879     A.U. after   12 cycles
 SCF Done:  E(RB3LYP) =  -417.936415114     A.U. after   14 cycles
 SCF Done:  E(RB3LYP) =  -417.937906611     A.U. after   12 cycles
 SCF Done:  E(RB3LYP) =  -417.939084516     A.U. after   13 cycles
 SCF Done:  E(RB3LYP) =  -417.939605509     A.U. after   11 cycles
 SCF Done:  E(RB3LYP) =  -417.939990072     A.U. after   11 cycles
 SCF Done:  E(RB3LYP) =  -417.940152375     A.U. after   11 cycles
 SCF Done:  E(RB3LYP) =  -417.940176270     A.U. after   11 cycles
 SCF Done:  E(RB3LYP) =  -417.940180652     A.U. after    8 cycles
 SCF Done:  E(RB3LYP) =  -417.940181208     A.U. after    8 cycles
 SCF Done:  E(RB3LYP) =  -417.940181326     A.U. after    7 cycles
 SCF Done:  E(RB3LYP) =  -417.940181384     A.U. after    7 cycles
 Optimization completed.
    -- Stationary point found.
 Normal termination of Gaussian 16 at Tue Jun  1 02:09:43 2021.

 ----------------------------------------------------------------------
 #N Geom=AllCheck Guess=TCheck SCRF=Check GenChk RB3LYP/6-31G(2df,p) Fr
 eq
 ----------------------------------------------------------------------

 Structure from the checkpoint file:  "CCNCCpNpCdNN.chk"
 -------------------
 Title Card Required
 -------------------
 Charge =  0 Multiplicity = 1

                         Standard orientation:
 ---------------------------------------------------------------------
 Center     Atomic      Atomic             Coordinates (Angstroms)
 Number     Number       Type             X           Y           Z
 ---------------------------------------------------------------------
      1          6           0       -4.179180   -0.343672   -0.209514
      2          6           0       -2.810714   -0.842404    0.245434
      3          7           0       -1.754072    0.075607   -0.170453
      4          6           0       -0.426609   -0.311335    0.287607
      5          6           0        0.662349    0.622585   -0.281729
      6          7           0        0.469851    2.050551    0.020084
      7          6           0        2.020807    0.202923    0.216216
      8          7           0        2.769372   -0.559902   -0.472429
      9          7           0        3.951732   -0.992641    0.087727
     10          1           0       -4.964791   -1.052153    0.069305
     11          1           0       -4.198397   -0.208624   -1.294735
     12          1           0       -4.422941    0.619485    0.254608
     13          1           0       -2.603302   -1.819248   -0.209943
     14          1           0       -2.821327   -1.009729    1.339793
     15          1           0       -1.969032    1.000402    0.191423
     16          1           0       -0.222897   -1.329899   -0.063206
     17          1           0       -0.341092   -0.338404    1.393935
     18          1           0        0.655800    0.516346   -1.370336
     19          1           0        0.286220    2.182451    1.012310
     20          1           0       -0.341243    2.401616   -0.478797
     21          1           0        2.323394    0.571338    1.208764
     22          1           0        4.627537   -1.157993   -0.646611
     23          1           0        4.333967   -0.359478    0.790912
 ---------------------------------------------------------------------

 SCF Done:  E(RB3LYP) =  -417.940181384     A.U. after    1 cycles

 The electronic state is 1-A.
 Alpha  occ. eigenvalues --  -14.34903 -14.34815 -14.31089 -14.30913 -10.20870
 Alpha  occ. eigenvalues --  -10.20265 -10.20168 -10.19793 -10.17361  -0.98031
 Alpha  occ. eigenvalues --   -0.90804  -0.87431  -0.80040  -0.74682  -0.69586
 Alpha  occ. eigenvalues --   -0.62021  -0.60046  -0.56673  -0.51978  -0.50037
 Alpha  occ. eigenvalues --   -0.48037  -0.46129  -0.45429  -0.44189  -0.42508
 Alpha  occ. eigenvalues --   -0.39790  -0.38212  -0.37079  -0.35753  -0.35165
 Alpha  occ. eigenvalues --   -0.34604  -0.33689  -0.26574  -0.24012  -0.22458
 Alpha  occ. eigenvalues --   -0.21738
 Alpha virt. eigenvalues --    0.01581   0.07125   0.09175   0.10270   0.11506
 Alpha virt. eigenvalues --    0.12222   0.14019   0.14855   0.15660   0.16651
 Alpha virt. eigenvalues --    0.17163   0.17833   0.18607   0.19678   0.20114

 Mulliken charges:
               1
     1  C   -0.388926
     2  C   -0.096950
     3  N   -0.293790
     4  C   -0.140500
     5  C   -0.038172
     6  N   -0.527770
     7  C    0.052126
     8  N   -0.142174
     9  N   -0.425878
    10  H    0.115059
    11  H    0.127092
    12  H    0.108315
    13  H    0.105188
    14  H    0.073614
    15  H    0.194877
    16  H    0.115815
    17  H    0.060819
    18  H    0.104484
    19  H    0.218521
    20  H    0.234720
    21  H    0.060134
    22  H    0.255673
    23  H    0.227722
 Sum of Mulliken charges =  -0.00000

 Dipole moment (field-independent basis, Debye):
    X=             -0.2296    Y=              0.8568    Z=              1.7537  Tot=              1.9653
 Quadrupole moment (field-independent basis, Debye-Ang):
   XX=            -46.2656   YY=            -58.9993   ZZ=            -56.1817
   XY=             -0.7268   XZ=              0.4736   YZ=              2.5161

  Exact polarizability: 119.745  -9.879  77.540   0.471   3.857  71.460
 Approx polarizability: 138.133 -18.186 117.670  -2.245   9.416 113.091

                      1                      2                      3
                      A                      A                      A
 Frequencies --     39.9561                56.1431                75.2416
 Red. masses --      3.4566                 2.3113                 2.1409
 Frc consts  --      0.0033                 0.0043                 0.0071
 IR Inten    --      3.0541                 0.2578                 2.4727

                      4                      5                      6
                      A                      A                      A
 Frequencies --    111.8588               147.5109               171.5374
 Red. masses --      2.4637                 2.4396                 3.3359
 Frc consts  --      0.0182                 0.0313                 0.0578
 IR Inten    --     12.3914                 2.3891                 6.3605

                      7                      8                      9
                      A                      A                      A
 Frequencies --    237.4634               251.3194               289.6580
 Red. masses --      2.1670                 1.1244                 1.5728
 Frc consts  --      0.0720                 0.0418                 0.0777
 IR Inten    --     10.1476                 4.0371                29.7476

                     10                     11                     12
                      A                      A                      A
 Frequencies --    315.1212               327.9963               405.7146
 Red. masses --      2.0436                 4.2097                 1.4266
 Frc consts  --      0.1196                 0.2668                 0.1384
 IR Inten    --     28.2714                 2.0582                25.6154

                     13                     14                     15
                      A                      A                      A
 Frequencies --    428.1967               486.3886               515.0251
 Red. masses --      2.3425                 3.2027                 2.5237
 Frc consts  --      0.2531                 0.4464                 0.3944
 IR Inten    --      2.8313                 4.8575                 3.1522

                     16                     17                     18
                      A                      A                      A
 Frequencies --    599.1483               756.3523               790.5608
 Red. masses --      2.7474                 1.5903                 1.3069
 Frc consts  --      0.5811                 0.5360                 0.4812
 IR Inten    --     15.2874               289.6031                88.7662

                     19                     20                     21
                      A                      A                      A
 Frequencies --    816.3627               848.5067               880.7025
 Red. masses --      1.1340                 1.6635                 1.7450
 Frc consts  --      0.4453                 0.7056                 0.7974
 IR Inten    --      3.8446               142.2010                24.9029

                     22                     23                     24
                      A                      A                      A
 Frequencies --    923.4106               944.0771              1024.7135
 Red. masses --      1.5773                 1.6064                 1.5335
 Frc consts  --      0.7924                 0.8436                 0.9487
 IR Inten    --      2.7637                 6.9792                 2.9418

                     25                     26                     27
                      A                      A                      A
 Frequencies --   1036.0713              1074.9140              1095.5345
 Red. masses --      3.2149                 2.6960                 2.4974
 Frc consts  --      2.0333                 1.8353                 1.7660
 IR Inten    --      6.9151                30.9854                11.1086

                     28                     29                     30
                      A                      A                      A
 Frequencies --   1133.1015              1137.8036              1156.5688
 Red. masses --      2.1821                 2.1169                 2.7976
 Frc consts  --      1.6507                 1.6147                 2.2049
 IR Inten    --     42.3198                20.0178                24.6665

                     31                     32                     33
                      A                      A                      A
 Frequencies --   1179.2064              1223.0759              1253.8904
 Red. masses --      1.7038                 1.6889                 1.3227
 Frc consts  --      1.3958                 1.4886                 1.2253
 IR Inten    --     33.4971                12.0029                14.6011

                     34                     35                     36
                      A                      A                      A
 Frequencies --   1280.3391              1292.1904              1323.3563
 Red. masses --      1.2488                 1.2631                 1.2278
 Frc consts  --      1.2061                 1.2426                 1.2669
 IR Inten    --      4.8620                 2.6250                 7.6089

                     37                     38                     39
                      A                      A                      A
 Frequencies --   1362.7822              1389.8162              1401.1249
 Red. masses --      1.2810                 1.2656                 1.2679
 Frc consts  --      1.4017                 1.4404                 1.4665
 IR Inten    --     14.5458                 5.2975                 0.1743

                     40                     41                     42
                      A                      A                      A
 Frequencies --   1419.6286              1434.9626              1477.8788
 Red. masses --      1.4178                 1.5905                 1.1495
 Frc consts  --      1.6835                 1.9296                 1.4792
 IR Inten    --      8.2524                 9.0679                26.0236

                     43                     44                     45
                      A                      A                      A
 Frequencies --   1496.5460              1497.6499              1503.8498
 Red. masses --      1.0488                 1.0989                 1.0850
 Frc consts  --      1.3839                 1.4523                 1.4458
 IR Inten    --     12.1035                 8.0298                10.9496

                     46                     47                     48
                      A                      A                      A
 Frequencies --   1525.2713              1649.2383              1658.6841
 Red. masses --      1.0922                 1.0989                 1.1166
 Frc consts  --      1.4971                 1.7611                 1.8100
 IR Inten    --      2.1057                14.8895                22.0067

                     49                     50                     51
                      A                      A                      A
 Frequencies --   1732.7950              2884.8965              2914.7419
 Red. masses --      6.7666                 1.0723                 1.0737
 Frc consts  --     11.9706                 5.2579                 5.3745
 IR Inten    --      8.4248                61.4137                96.1119

                     52                     53                     54
                      A                      A                      A
 Frequencies --   2993.6073              3029.4384              3035.9622
 Red. masses --      1.0844                 1.0515                 1.0708
 Frc consts  --      5.7258                 5.6855                 5.8150
 IR Inten    --     52.7952                13.0430                30.3713

                     55                     56                     57
                      A                      A                      A
 Frequencies --   3054.4246              3079.1457              3097.1347
 Red. masses --      1.0852                 1.0859                 1.0980
 Frc consts  --      5.9649                 6.0658                 6.2052
 IR Inten    --     18.8674                17.3652                39.0589

                     58                     59                     60
                      A                      A                      A
 Frequencies --   3118.5437              3425.3921              3475.4375
 Red. masses --      1.1023                 1.0533                 1.0503
 Frc consts  --      6.3160                 7.2816                 7.4743
 IR Inten    --     26.6172                 5.7699                 0.8416

                     61                     62                     63
                      A                      A                      A
 Frequencies --   3496.5958              3570.7531              3600.6822
 Red. masses --      1.0724                 1.0907                 1.0888
 Frc consts  --      7.7252                 8.1939                 8.3171
 IR Inten    --      1.3085                 0.4462                11.1999

 - Thermochemistry -
 -------------------
 Temperature   298.150 Kelvin.  Pressure   1.00000 Atm.
 Atom     1 has atomic number  6 and mass  12.00000

 Molecular mass:   130.12185 amu.
 Principal axes and moments of inertia in atomic units:
                           1         2         3
     Eigenvalues --   476.833583138.557893482.22548
           X            0.99998   0.00524   0.00302
           Y           -0.00526   0.99996   0.00728
           Z           -0.00298  -0.00730   0.99997
 This molecule is an asymmetric top.
 Rotational symmetry number  1.
 Warning -- assumption of classical behavior for rotation
           may cause significant error
 Rotational temperatures (Kelvin)      0.18164     0.02760     0.02487
 Rotational constants (GHZ):           3.78485     0.57502     0.51827
 Zero-point vibrational energy     538056.4 (Joules/Mol)
                                  128.59856 (Kcal/Mol)
 Warning -- explicit consideration of  16 degrees of freedom as
           vibrations may cause significant error
 Vibrational temperatures:     57.49    80.78   108.26   160.94   212.24
          (Kelvin)            246.80   341.66   361.59   416.75   453.39
                              471.91   583.73   616.08   699.80   741.01
                              862.04  1088.22  1137.44  1174.56  1220.81
                             1267.13  1328.58  1358.32  1474.33  1490.68
                             1546.56  1576.23  1630.28  1637.05  1664.04
                             1696.62  1759.73  1804.07  1842.12  1859.17
                             1904.01  1960.74  1999.64  2015.91  2042.53
                             2064.59  2126.34  2153.20  2154.78  2163.70
                             2194.53  2372.89  2386.48  2493.11  4150.72
                             4193.66  4307.13  4358.69  4368.07  4394.64
                             4430.20  4456.09  4486.89  4928.38  5000.38
                             5030.82  5137.52  5180.58

 Zero-point correction=                           0.204935 (Hartree/Particle)
 Thermal correction to Energy=                    0.216397
 Thermal correction to Enthalpy=                  0.217341
 Thermal correction to Gibbs Free Energy=         0.166980
 Sum of electronic and zero-point Energies=           -417.735247
 Sum of electronic and thermal Energies=              -417.723784
 Sum of electronic and thermal Enthalpies=            -417.722840
 Sum of electronic and thermal Free Energies=         -417.773201

                     E (Thermal)             CV                S
                      KCal/Mol        Cal/Mol-Kelvin    Cal/Mol-Kelvin
 Total                  135.791             40.598            105.994
 Electronic               0.000              0.000              0.000
 Translational            0.889              2.981             40.503
 Rotational               0.889              2.981             30.034
 Vibrational            134.014             34.636             35.457
 Vibration     1          0.594              1.981              5.261
 Vibration     2          0.596              1.975              4.588
 Vibration     3          0.599              1.966              4.011
 Vibration     4          0.607              1.940              3.236
 Vibration     5          0.617              1.905              2.704
 Vibration     6          0.626              1.878              2.419
 Vibration     7          0.656              1.783              1.822
 Vibration     8          0.663              1.761              1.721
 Vibration     9          0.686              1.693              1.476
 Vibration    10          0.702              1.645              1.335
 Vibration    11          0.711              1.620              1.270
 Vibration    12          0.771              1.458              0.942
 Vibration    13          0.790              1.409              0.865
 Vibration    14          0.842              1.280              0.693
 Vibration    15          0.870              1.217              0.622
 Vibration    16          0.957              1.034              0.451

                           ! Non-Optimized Parameters !
 Normal termination of Gaussian 16 at Tue Jun  1 02:38:40 2021.
