 Gaussian 16, Revision A.03,
 Gaussian 16:  ES64L-G16RevA.03 25-Dec-2016

 -----------------------------
 # opt freq b3lyp/6-31g(2df,p)
 -----------------------------

 -------------------
 Title Card Required
 -------------------
 Symbolic Z-matrix:
 Charge =  0 Multiplicity = 1

 SCF Done:  E(RB3LYP) =  -382.497685063     A.U. after   13 cycles
 SCF Done:  E(RB3LYP) =  -382.500501596     A.U. after   11 cycles
 SCF Done:  E(RB3LYP) =  -382.500631528     A.U. after   10 cycles
 SCF Done:  E(RB3LYP) =  -382.500645077     A.U. after    9 cycles
 SCF Done:  E(RB3LYP) =  -382.500650593     A.U. after    8 cycles
 SCF Done:  E(RB3LYP) =  -382.500654754     A.U. after    9 cycles
 SCF Done:  E(RB3LYP) =  -382.500659682     A.U. after    9 cycles
 SCF Done:  E(RB3LYP) =  -382.500669611     A.U. after    9 cycles
 SCF Done:  E(RB3LYP) =  -382.500690004     A.U. after   11 cycles
 SCF Done:  E(RB3LYP) =  -382.500702217     A.U. after    8 cycles
 SCF Done:  E(RB3LYP) =  -382.500729375     A.U. after   10 cycles
 SCF Done:  E(RB3LYP) =  -382.500737386     A.U. after   10 cycles
 SCF Done:  E(RB3LYP) =  -382.500765241     A.U. after   10 cycles
 SCF Done:  E(RB3LYP) =  -382.500778207     A.U. after    9 cycles
 SCF Done:  E(RB3LYP) =  -382.500790594     A.U. after   10 cycles
 SCF Done:  E(RB3LYP) =  -382.500796684     A.U. after   10 cycles
 SCF Done:  E(RB3LYP) =  -382.500804651     A.U. after    9 cycles
 SCF Done:  E(RB3LYP) =  -382.500806072     A.U. after   10 cycles
 SCF Done:  E(RB3LYP) =  -382.500806864     A.U. after    9 cycles
 Optimization completed.
    -- Stationary point found.
 Normal termination of Gaussian 16 at Mon May 31 12:53:18 2021.

 ----------------------------------------------------------------------
 #N Geom=AllCheck Guess=TCheck SCRF=Check GenChk RB3LYP/6-31G(2df,p) Fr
 eq
 ----------------------------------------------------------------------

 Structure from the checkpoint file:  "CCNCpdNpCCO.chk"
 -------------------
 Title Card Required
 -------------------
 Charge =  0 Multiplicity = 1

                         Standard orientation:
 ---------------------------------------------------------------------
 Center     Atomic      Atomic             Coordinates (Angstroms)
 Number     Number       Type             X           Y           Z
 ---------------------------------------------------------------------
      1          6           0       -3.617030   -0.724697   -0.006647
      2          6           0       -2.493128    0.305219   -0.068516
      3          7           0       -1.199405   -0.335727    0.077019
      4          6           0       -0.011695    0.362426    0.042464
      5          7           0        0.127023    1.635634    0.045816
      6          6           0        1.217904   -0.525382    0.040362
      7          6           0        2.539154    0.240598   -0.049671
      8          8           0        3.651790   -0.642873   -0.118269
      9          1           0       -4.589615   -0.235124   -0.101425
     10          1           0       -3.597630   -1.268448    0.942840
     11          1           0       -3.530528   -1.452898   -0.820994
     12          1           0       -2.620199    1.036103    0.740796
     13          1           0       -2.550788    0.869195   -1.013172
     14          1           0       -1.157726   -1.313731   -0.162744
     15          1           0       -0.772107    2.116903    0.039730
     16          1           0        1.162355   -1.230439   -0.799828
     17          1           0        1.207106   -1.140973    0.951610
     18          1           0        2.623881    0.945110    0.786436
     19          1           0        2.561296    0.834835   -0.965699
     20          1           0        3.745087   -1.065885    0.740812
 ---------------------------------------------------------------------

 SCF Done:  E(RB3LYP) =  -382.500806864     A.U. after    1 cycles

 The electronic state is 1-A.
 Alpha  occ. eigenvalues --  -19.12466 -14.34324 -14.27955 -10.24446 -10.22648
 Alpha  occ. eigenvalues --  -10.21373 -10.19382 -10.18421  -1.00482  -0.95104
 Alpha  occ. eigenvalues --   -0.85295  -0.76718  -0.74181  -0.65060  -0.61428
 Alpha  occ. eigenvalues --   -0.56321  -0.51652  -0.49490  -0.48199  -0.47033
 Alpha  occ. eigenvalues --   -0.44380  -0.41763  -0.39468  -0.38684  -0.37985
 Alpha  occ. eigenvalues --   -0.37200  -0.36337  -0.31998  -0.30959  -0.26609
 Alpha  occ. eigenvalues --   -0.24711  -0.22654
 Alpha virt. eigenvalues --    0.04273   0.07760   0.08338   0.09675   0.11043
 Alpha virt. eigenvalues --    0.13914   0.14244   0.15319   0.16100   0.16657
 Alpha virt. eigenvalues --    0.17546   0.18359   0.19891   0.21498   0.22749

 Mulliken charges:
               1
     1  C   -0.408937
     2  C   -0.117629
     3  N   -0.316404
     4  C    0.378775
     5  N   -0.535015
     6  C   -0.293747
     7  C   -0.059982
     8  O   -0.422044
     9  H    0.129293
    10  H    0.130136
    11  H    0.122120
    12  H    0.116840
    13  H    0.106653
    14  H    0.234756
    15  H    0.202438
    16  H    0.113625
    17  H    0.103931
    18  H    0.109695
    19  H    0.127517
    20  H    0.277978
 Sum of Mulliken charges =  -0.00000

 Dipole moment (field-independent basis, Debye):
    X=             -3.3351    Y=             -2.3029    Z=              0.8437  Tot=              4.1398
 Quadrupole moment (field-independent basis, Debye-Ang):
   XX=            -50.4059   YY=            -50.5763   ZZ=            -48.8910
   XY=             -2.1617   XZ=              5.4955   YZ=             -1.2954

  Exact polarizability:  91.248   0.603  74.280   1.300  -0.823  55.568
 Approx polarizability: 105.176   2.506 118.269   0.552  -1.269  84.979

                      1                      2                      3
                      A                      A                      A
 Frequencies --     28.1001                69.3591                87.0732
 Red. masses --      2.0799                 3.2327                 2.1659
 Frc consts  --      0.0010                 0.0092                 0.0097
 IR Inten    --      2.9328                 2.3732                 1.9449

                      4                      5                      6
                      A                      A                      A
 Frequencies --    116.4002               138.9617               237.9254
 Red. masses --      3.9208                 2.3646                 2.9856
 Frc consts  --      0.0313                 0.0269                 0.0996
 IR Inten    --      1.1608                 5.6850                 8.2780

                      7                      8                      9
                      A                      A                      A
 Frequencies --    266.7407               296.0431               328.1056
 Red. masses --      1.2089                 1.1613                 3.1853
 Frc consts  --      0.0507                 0.0600                 0.2020
 IR Inten    --      1.4745               100.3008                20.3874

                     10                     11                     12
                      A                      A                      A
 Frequencies --    363.8243               385.1245               450.6317
 Red. masses --      1.3413                 3.9921                 3.4282
 Frc consts  --      0.1046                 0.3489                 0.4102
 IR Inten    --     60.0726                11.2955                 7.1260

                     13                     14                     15
                      A                      A                      A
 Frequencies --    555.5988               688.6334               797.1513
 Red. masses --      1.8757                 3.5684                 1.3116
 Frc consts  --      0.3411                 0.9970                 0.4910
 IR Inten    --      7.9819                14.8091                 5.2018

                     16                     17                     18
                      A                      A                      A
 Frequencies --    814.3733               869.1537               909.7862
 Red. masses --      1.0988                 1.2883                 1.8998
 Frc consts  --      0.4293                 0.5734                 0.9265
 IR Inten    --     11.3701                36.8935                 0.1347

                     19                     20                     21
                      A                      A                      A
 Frequencies --    945.4884              1027.1090              1052.3586
 Red. masses --      3.1009                 2.6918                 2.0116
 Frc consts  --      1.6332                 1.6731                 1.3125
 IR Inten    --      7.6378                52.3044                15.7198

                     22                     23                     24
                      A                      A                      A
 Frequencies --   1072.1320              1077.4726              1145.0146
 Red. masses --      3.4365                 2.3975                 2.2785
 Frc consts  --      2.3273                 1.6399                 1.7600
 IR Inten    --     92.8618                 2.4929                 0.7278

                     25                     26                     27
                      A                      A                      A
 Frequencies --   1161.7508              1170.3260              1199.6455
 Red. masses --      1.1753                 1.4924                 2.2425
 Frc consts  --      0.9346                 1.2043                 1.9015
 IR Inten    --      9.3624                 3.2283                54.6447

                     28                     29                     30
                      A                      A                      A
 Frequencies --   1264.3940              1294.3020              1309.6946
 Red. masses --      1.4056                 1.1197                 1.1509
 Frc consts  --      1.3239                 1.1051                 1.1631
 IR Inten    --     68.0973                 5.2549                10.9848

                     31                     32                     33
                      A                      A                      A
 Frequencies --   1346.0426              1387.1919              1401.2606
 Red. masses --      1.3475                 1.2953                 1.2819
 Frc consts  --      1.4385                 1.4685                 1.4830
 IR Inten    --     32.4934                 5.4185                27.0770

                     34                     35                     36
                      A                      A                      A
 Frequencies --   1413.2720              1422.6496              1472.0767
 Red. masses --      1.2867                 1.5838                 1.0981
 Frc consts  --      1.5142                 1.8887                 1.4021
 IR Inten    --     15.4596                12.7271                13.4203

                     37                     38                     39
                      A                      A                      A
 Frequencies --   1493.3105              1500.7542              1503.5159
 Red. masses --      1.0551                 1.0587                 1.0910
 Frc consts  --      1.3863                 1.4049                 1.4531
 IR Inten    --     13.7103                30.0083                 2.3046

                     40                     41                     42
                      A                      A                      A
 Frequencies --   1520.5661              1534.0576              1708.2646
 Red. masses --      1.6832                 1.1407                 6.6935
 Frc consts  --      2.2930                 1.5817                11.5083
 IR Inten    --    214.0356                 4.0950               129.2864

                     43                     44                     45
                      A                      A                      A
 Frequencies --   2976.2335              3006.4140              3026.3510
 Red. masses --      1.0690                 1.0618                 1.0894
 Frc consts  --      5.5791                 5.6542                 5.8784
 IR Inten    --     39.1698                22.2380                16.8473

                     46                     47                     48
                      A                      A                      A
 Frequencies --   3033.1775              3036.9387              3046.7262
 Red. masses --      1.0784                 1.0389                 1.0852
 Frc consts  --      5.8453                 5.6452                 5.9353
 IR Inten    --     12.9444                22.4364                37.0826

                     49                     50                     51
                      A                      A                      A
 Frequencies --   3103.9593              3113.8579              3122.7772
 Red. masses --      1.1007                 1.0983                 1.1012
 Frc consts  --      6.2483                 6.2745                 6.3269
 IR Inten    --     30.9254                23.5401                21.3148

                     52                     53                     54
                      A                      A                      A
 Frequencies --   3479.1205              3621.0799              3817.9779
 Red. masses --      1.0735                 1.0764                 1.0662
 Frc consts  --      7.6555                 8.3158                 9.1573
 IR Inten    --      7.9475                13.4928                15.0882

 - Thermochemistry -
 -------------------
 Temperature   298.150 Kelvin.  Pressure   1.00000 Atm.
 Atom     1 has atomic number  6 and mass  12.00000

 Molecular mass:   116.09496 amu.
 Principal axes and moments of inertia in atomic units:
                           1         2         3
     Eigenvalues --   297.865992357.188192602.82129
           X            0.99997   0.00635   0.00506
           Y           -0.00629   0.99992  -0.01060
           Z           -0.00513   0.01057   0.99993
 This molecule is an asymmetric top.
 Rotational symmetry number  1.
 Rotational temperatures (Kelvin)      0.29078     0.03674     0.03328
 Rotational constants (GHZ):           6.05890     0.76563     0.69338
 Zero-point vibrational energy     461819.9 (Joules/Mol)
                                  110.37759 (Kcal/Mol)
 Warning -- explicit consideration of  13 degrees of freedom as
           vibrations may cause significant error
 Vibrational temperatures:     40.43    99.79   125.28   167.47   199.93
          (Kelvin)            342.32   383.78   425.94   472.07   523.46
                              554.11   648.36   799.38   990.79  1146.92
                             1171.70  1250.52  1308.98  1360.35  1477.78
                             1514.11  1542.56  1550.24  1647.42  1671.50
                             1683.84  1726.02  1819.18  1862.21  1884.36
                             1936.66  1995.86  2016.10  2033.38  2046.88
                             2117.99  2148.54  2159.25  2163.22  2187.76
                             2207.17  2457.81  4282.14  4325.56  4354.24
                             4364.07  4369.48  4383.56  4465.91  4480.15
                             4492.98  5005.68  5209.93  5493.22

 Zero-point correction=                           0.175898 (Hartree/Particle)
 Thermal correction to Energy=                    0.186159
 Thermal correction to Enthalpy=                  0.187103
 Thermal correction to Gibbs Free Energy=         0.139373
 Sum of electronic and zero-point Energies=           -382.324909
 Sum of electronic and thermal Energies=              -382.314648
 Sum of electronic and thermal Enthalpies=            -382.313703
 Sum of electronic and thermal Free Energies=         -382.361434

                     E (Thermal)             CV                S
                      KCal/Mol        Cal/Mol-Kelvin    Cal/Mol-Kelvin
 Total                  116.817             35.346            100.457
 Electronic               0.000              0.000              0.000
 Translational            0.889              2.981             40.163
 Rotational               0.889              2.981             28.993
 Vibrational            115.039             29.384             31.301
 Vibration     1          0.593              1.984              5.959
 Vibration     2          0.598              1.969              4.171
 Vibration     3          0.601              1.958              3.725
 Vibration     4          0.608              1.936              3.159
 Vibration     5          0.615              1.914              2.818
 Vibration     6          0.656              1.783              1.818
 Vibration     7          0.672              1.734              1.617
 Vibration     8          0.690              1.681              1.439
 Vibration     9          0.711              1.619              1.269
 Vibration    10          0.737              1.547              1.106
 Vibration    11          0.754              1.502              1.019
 Vibration    12          0.809              1.359              0.794
 Vibration    13          0.911              1.127              0.533

                           ! Non-Optimized Parameters !
 Normal termination of Gaussian 16 at Mon May 31 13:14:25 2021.
