 Gaussian 16, Revision A.03,
 Gaussian 16:  ES64L-G16RevA.03 25-Dec-2016

 -----------------------------
 # opt freq b3lyp/6-31g(2df,p)
 -----------------------------

 -------------------
 Title Card Required
 -------------------
 Symbolic Z-matrix:
 Charge =  0 Multiplicity = 1

 SCF Done:  E(RB3LYP) =  -441.194467429     A.U. after   13 cycles
 SCF Done:  E(RB3LYP) =  -441.203980508     A.U. after   12 cycles
 SCF Done:  E(RB3LYP) =  -441.210488111     A.U. after   11 cycles
 SCF Done:  E(RB3LYP) =  -441.212389555     A.U. after   11 cycles
 SCF Done:  E(RB3LYP) =  -441.217007543     A.U. after   11 cycles
 SCF Done:  E(RB3LYP) =  -441.046425199     A.U. after   15 cycles
 SCF Done:  E(RB3LYP) =  -441.215760198     A.U. after   13 cycles
 SCF Done:  E(RB3LYP) =  -441.220551402     A.U. after   10 cycles
 SCF Done:  E(RB3LYP) =  -441.226820574     A.U. after   13 cycles
 SCF Done:  E(RB3LYP) =  -441.193934510     A.U. after   13 cycles
 SCF Done:  E(RB3LYP) =  -441.233687627     A.U. after   11 cycles
 SCF Done:  E(RB3LYP) =  -441.234162713     A.U. after   11 cycles
 SCF Done:  E(RB3LYP) =  -441.234203222     A.U. after   10 cycles
 SCF Done:  E(RB3LYP) =  -441.234208708     A.U. after    8 cycles
 SCF Done:  E(RB3LYP) =  -441.234211869     A.U. after    7 cycles
 SCF Done:  E(RB3LYP) =  -441.234215335     A.U. after    8 cycles
 SCF Done:  E(RB3LYP) =  -441.234218958     A.U. after    7 cycles
 SCF Done:  E(RB3LYP) =  -441.234221688     A.U. after    7 cycles
 SCF Done:  E(RB3LYP) =  -441.234222088     A.U. after    7 cycles
 Optimization completed.
    -- Stationary point found.
 Normal termination of Gaussian 16 at Mon May 31 23:28:02 2021.

 ----------------------------------------------------------------------
 #N Geom=AllCheck Guess=TCheck SCRF=Check GenChk RB3LYP/6-31G(2df,p) Fr
 eq
 ----------------------------------------------------------------------

 Structure from the checkpoint file:  "CCNCCpCNCpdNC.chk"
 -------------------
 Title Card Required
 -------------------
 Charge =  0 Multiplicity = 1

                         Standard orientation:
 ---------------------------------------------------------------------
 Center     Atomic      Atomic             Coordinates (Angstroms)
 Number     Number       Type             X           Y           Z
 ---------------------------------------------------------------------
      1          6           0        3.787709   -0.130040   -0.709131
      2          6           0        2.779756   -0.495373    0.376078
      3          7           0        1.410737   -0.436010   -0.135369
      4          6           0        0.401888   -0.836944    0.853898
      5          6           0       -0.987108   -0.705705    0.264454
      6          6           0       -1.501457    0.689983   -0.059979
      7          7           0       -0.577279    1.749841    0.297905
      8          6           0       -1.048135    3.069227   -0.086571
      9          7           0       -1.638882   -1.779523    0.056371
     10          6           0       -2.975512   -1.695775   -0.513542
     11          1           0        4.807296   -0.146361   -0.313028
     12          1           0        3.584439    0.868483   -1.107187
     13          1           0        3.745143   -0.840572   -1.542840
     14          1           0        2.853650    0.215934    1.208301
     15          1           0        3.024938   -1.488846    0.794147
     16          1           0        1.331815   -1.053446   -0.939516
     17          1           0        0.495249   -0.157873    1.709574
     18          1           0        0.525715   -1.870756    1.207859
     19          1           0       -2.443785    0.844753    0.489111
     20          1           0       -1.794184    0.708272   -1.131179
     21          1           0        0.322678    1.543050   -0.127653
     22          1           0       -1.950304    3.323962    0.483234
     23          1           0       -1.300292    3.166671   -1.159364
     24          1           0       -0.284553    3.815711    0.151164
     25          1           0       -3.391417   -2.702032   -0.606044
     26          1           0       -2.972741   -1.236015   -1.512378
     27          1           0       -3.658530   -1.103330    0.112210
 ---------------------------------------------------------------------

 SCF Done:  E(RB3LYP) =  -441.234222088     A.U. after    1 cycles

 The electronic state is 1-A.
 Alpha  occ. eigenvalues --  -14.31971 -14.30795 -14.30313 -10.21867 -10.20723
 Alpha  occ. eigenvalues --  -10.20695 -10.19927 -10.19623 -10.19540 -10.17763
 Alpha  occ. eigenvalues --   -0.92399  -0.89573  -0.88797  -0.75743  -0.72117
 Alpha  occ. eigenvalues --   -0.69047  -0.64908  -0.62849  -0.60710  -0.52444
 Alpha  occ. eigenvalues --   -0.49895  -0.47238  -0.46631  -0.45522  -0.44910
 Alpha  occ. eigenvalues --   -0.42758  -0.42330  -0.40555  -0.40119  -0.38793
 Alpha  occ. eigenvalues --   -0.38171  -0.37678  -0.36056  -0.35555  -0.34808
 Alpha  occ. eigenvalues --   -0.34080  -0.27711  -0.23663  -0.22986  -0.21296
 Alpha virt. eigenvalues --    0.00549   0.08191   0.09231   0.11051   0.12483
 Alpha virt. eigenvalues --    0.12830   0.13623   0.14821   0.15491   0.16153
 Alpha virt. eigenvalues --    0.16505   0.17312   0.17683   0.18125   0.18758

 Mulliken charges:
               1
     1  C   -0.390499
     2  C   -0.097748
     3  N   -0.299613
     4  C   -0.210914
     5  C    0.273193
     6  C   -0.218630
     7  N   -0.294277
     8  C   -0.308541
     9  N   -0.236683
    10  C   -0.320035
    11  H    0.117912
    12  H    0.123265
    13  H    0.113861
    14  H    0.108198
    15  H    0.083433
    16  H    0.218148
    17  H    0.123025
    18  H    0.097800
    19  H    0.118248
    20  H    0.091462
    21  H    0.230283
    22  H    0.115390
    23  H    0.088868
    24  H    0.115475
    25  H    0.120468
    26  H    0.118467
    27  H    0.119445
 Sum of Mulliken charges =  -0.00000

 Dipole moment (field-independent basis, Debye):
    X=              0.5293    Y=              0.7703    Z=             -0.9507  Tot=              1.3332
 Quadrupole moment (field-independent basis, Debye-Ang):
   XX=            -57.9342   YY=            -67.0080   ZZ=            -63.8792
   XY=             -2.2580   XZ=              0.9863   YZ=              0.5913

  Exact polarizability: 119.779   7.277 106.558   4.778   0.300  80.772
 Approx polarizability: 146.258  10.934 146.642   7.166   2.952 123.901

                      1                      2                      3
                      A                      A                      A
 Frequencies --     50.5563                79.3486                88.3781
 Red. masses --      3.0851                 2.3785                 1.9212
 Frc consts  --      0.0046                 0.0088                 0.0088
 IR Inten    --      0.7223                 0.2163                 1.0996

                      4                      5                      6
                      A                      A                      A
 Frequencies --     98.1996               108.1767               130.4280
 Red. masses --      1.1429                 1.7374                 2.3157
 Frc consts  --      0.0065                 0.0120                 0.0232
 IR Inten    --      1.2702                 1.6550                 4.7906

                      7                      8                      9
                      A                      A                      A
 Frequencies --    160.2756               193.1123               250.2484
 Red. masses --      2.8241                 2.2524                 1.3578
 Frc consts  --      0.0427                 0.0495                 0.0501
 IR Inten    --      0.7295                 1.5746                 3.8224

                     10                     11                     12
                      A                      A                      A
 Frequencies --    254.4161               264.8000               289.4698
 Red. masses --      1.7648                 1.5237                 2.8246
 Frc consts  --      0.0673                 0.0629                 0.1394
 IR Inten    --      0.8610                 0.3613                 1.4705

                     13                     14                     15
                      A                      A                      A
 Frequencies --    316.7167               366.0952               417.3878
 Red. masses --      3.4018                 3.0260                 3.1402
 Frc consts  --      0.2011                 0.2389                 0.3223
 IR Inten    --      2.4401                 2.3024                 1.6962

                     16                     17                     18
                      A                      A                      A
 Frequencies --    479.7396               556.0958               620.5494
 Red. masses --      3.0838                 2.9645                 3.2991
 Frc consts  --      0.4182                 0.5401                 0.7485
 IR Inten    --      1.5224                 5.1812                 9.8465

                     19                     20                     21
                      A                      A                      A
 Frequencies --    799.6774               809.4985               819.4591
 Red. masses --      1.8405                 1.5008                 1.3077
 Frc consts  --      0.6935                 0.5794                 0.5174
 IR Inten    --     11.6995                21.9849                12.8791

                     22                     23                     24
                      A                      A                      A
 Frequencies --    870.5562               920.0677               951.3136
 Red. masses --      1.3364                 1.6110                 1.7149
 Frc consts  --      0.5967                 0.8035                 0.9144
 IR Inten    --     73.1321                 3.8274                48.3429

                     25                     26                     27
                      A                      A                      A
 Frequencies --    987.1735              1011.6699              1033.8329
 Red. masses --      2.5167                 1.6425                 2.7185
 Frc consts  --      1.4450                 0.9904                 1.7119
 IR Inten    --      1.7879                 8.1761                 4.3931

                     28                     29                     30
                      A                      A                      A
 Frequencies --   1057.6965              1087.1265              1125.2544
 Red. masses --      2.7985                 1.3957                 2.9783
 Frc consts  --      1.8446                 0.9719                 2.2219
 IR Inten    --      4.2981                 1.4779                24.3817

                     31                     32                     33
                      A                      A                      A
 Frequencies --   1130.3781              1148.0771              1150.3652
 Red. masses --      1.5623                 1.7364                 1.7644
 Frc consts  --      1.1761                 1.3485                 1.3757
 IR Inten    --     12.6983                13.1325                18.6249

                     34                     35                     36
                      A                      A                      A
 Frequencies --   1162.8992              1180.3851              1207.1135
 Red. masses --      1.8757                 1.6187                 2.1855
 Frc consts  --      1.4945                 1.3288                 1.8763
 IR Inten    --     19.7530                17.8075                13.7150

                     37                     38                     39
                      A                      A                      A
 Frequencies --   1249.5341              1276.8322              1289.3605
 Red. masses --      1.8193                 1.3715                 1.6462
 Frc consts  --      1.6736                 1.3174                 1.6125
 IR Inten    --      1.9945                 6.3301                29.8878

                     40                     41                     42
                      A                      A                      A
 Frequencies --   1315.5111              1348.2445              1364.8412
 Red. masses --      1.1901                 1.4047                 1.4201
 Frc consts  --      1.2134                 1.5044                 1.5586
 IR Inten    --      7.4010                19.3466                20.9067

                     43                     44                     45
                      A                      A                      A
 Frequencies --   1400.0664              1419.4577              1427.7466
 Red. masses --      1.2928                 1.4187                 1.1510
 Frc consts  --      1.4930                 1.6842                 1.3824
 IR Inten    --      3.4807                 9.0297                14.4826

                     46                     47                     48
                      A                      A                      A
 Frequencies --   1457.7301              1477.6326              1478.2046
 Red. masses --      1.1615                 1.1039                 1.1210
 Frc consts  --      1.4542                 1.4201                 1.4432
 IR Inten    --      5.6040                 4.2522                12.5579

                     49                     50                     51
                      A                      A                      A
 Frequencies --   1482.8531              1487.3032              1488.2820
 Red. masses --      1.0707                 1.0729                 1.0853
 Frc consts  --      1.3871                 1.3984                 1.4163
 IR Inten    --      1.1305                15.2411                11.3475

                     52                     53                     54
                      A                      A                      A
 Frequencies --   1496.5391              1500.8268              1503.6234
 Red. masses --      1.0525                 1.0935                 1.0506
 Frc consts  --      1.3888                 1.4513                 1.3994
 IR Inten    --      8.3653                 6.9761                 7.3244

                     55                     56                     57
                      A                      A                      A
 Frequencies --   1511.6803              1520.3165              1528.6789
 Red. masses --      1.0815                 1.0884                 1.1217
 Frc consts  --      1.4561                 1.4822                 1.5444
 IR Inten    --      3.4794                13.4974                27.9891

                     58                     59                     60
                      A                      A                      A
 Frequencies --   1734.2695              2873.8426              2928.0682
 Red. masses --      9.4544                 1.0740                 1.0608
 Frc consts  --     16.7539                 5.2263                 5.3588
 IR Inten    --     70.4561                57.1830               111.6819

                     61                     62                     63
                      A                      A                      A
 Frequencies --   2935.4451              2987.1108              2989.5412
 Red. masses --      1.0728                 1.0429                 1.0758
 Frc consts  --      5.4467                 5.4827                 5.6649
 IR Inten    --     69.4397                51.0278                10.1089

                     64                     65                     66
                      A                      A                      A
 Frequencies --   2995.3593              3032.1716              3038.3087
 Red. masses --      1.0641                 1.0432                 1.1001
 Frc consts  --      5.6249                 5.6509                 5.9836
 IR Inten    --     49.8202                14.8252                23.8626

                     67                     68                     69
                      A                      A                      A
 Frequencies --   3039.8192              3042.9241              3063.8919
 Red. masses --      1.0799                 1.0740                 1.0970
 Frc consts  --      5.8791                 5.8589                 6.0671
 IR Inten    --     25.9390                51.0102                14.3456

                     70                     71                     72
                      A                      A                      A
 Frequencies --   3098.6473              3099.4956              3101.0944
 Red. masses --      1.0990                 1.0992                 1.0962
 Frc consts  --      6.2171                 6.2218                 6.2113
 IR Inten    --     26.1746                44.4562                35.9492

                     73                     74                     75
                      A                      A                      A
 Frequencies --   3117.0074              3490.9511              3492.9527
 Red. masses --      1.1022                 1.0737                 1.0743
 Frc consts  --      6.3092                 7.7096                 7.7224
 IR Inten    --     28.6910                 9.6251                56.0684

 - Thermochemistry -
 -------------------
 Temperature   298.150 Kelvin.  Pressure   1.00000 Atm.
 Atom     1 has atomic number  6 and mass  12.00000

 Molecular mass:   143.14225 amu.
 Principal axes and moments of inertia in atomic units:
                           1         2         3
     Eigenvalues --  1277.438372333.215493331.33248
           X            0.99987  -0.01564   0.00389
           Y            0.01565   0.99987  -0.00302
           Z           -0.00384   0.00308   0.99999
 This molecule is an asymmetric top.
 Rotational symmetry number  1.
 Warning -- assumption of classical behavior for rotation
           may cause significant error
 Rotational temperatures (Kelvin)      0.06780     0.03712     0.02600
 Rotational constants (GHZ):           1.41278     0.77350     0.54175
 Zero-point vibrational energy     641573.4 (Joules/Mol)
                                  153.33973 (Kcal/Mol)
 Warning -- explicit consideration of  18 degrees of freedom as
           vibrations may cause significant error
 Vibrational temperatures:     72.74   114.17   127.16   141.29   155.64
          (Kelvin)            187.66   230.60   277.85   360.05   366.05
                              380.99   416.48   455.68   526.73   600.53
                              690.24   800.10   892.83  1150.56  1164.69
                             1179.02  1252.54  1323.77  1368.73  1420.32
                             1455.57  1487.45  1521.79  1564.13  1618.99
                             1626.36  1651.83  1655.12  1673.15  1698.31
                             1736.77  1797.80  1837.08  1855.10  1892.73
                             1939.82  1963.70  2014.38  2042.28  2054.21
                             2097.35  2125.98  2126.81  2133.49  2139.90
                             2141.31  2153.19  2159.35  2163.38  2174.97
                             2187.40  2199.43  2495.23  4134.82  4212.84
                             4223.45  4297.79  4301.28  4309.65  4362.62
                             4371.45  4373.62  4378.09  4408.26  4458.26
                             4459.48  4461.78  4484.68  5022.70  5025.58

 Zero-point correction=                           0.244362 (Hartree/Particle)
 Thermal correction to Energy=                    0.257203
 Thermal correction to Enthalpy=                  0.258147
 Thermal correction to Gibbs Free Energy=         0.204947
 Sum of electronic and zero-point Energies=           -440.989860
 Sum of electronic and thermal Energies=              -440.977020
 Sum of electronic and thermal Enthalpies=            -440.976075
 Sum of electronic and thermal Free Energies=         -441.029275

                     E (Thermal)             CV                S
                      KCal/Mol        Cal/Mol-Kelvin    Cal/Mol-Kelvin
 Total                  161.397             45.224            111.968
 Electronic               0.000              0.000              0.000
 Translational            0.889              2.981             40.787
 Rotational               0.889              2.981             30.674
 Vibrational            159.620             39.262             40.506
 Vibration     1          0.595              1.977              4.796
 Vibration     2          0.600              1.963              3.907
 Vibration     3          0.601              1.957              3.696
 Vibration     4          0.604              1.950              3.490
 Vibration     5          0.606              1.943              3.301
 Vibration     6          0.612              1.923              2.940
 Vibration     7          0.622              1.891              2.547
 Vibration     8          0.635              1.849              2.198
 Vibration     9          0.663              1.762              1.729
 Vibration    10          0.665              1.755              1.700
 Vibration    11          0.671              1.738              1.630
 Vibration    12          0.686              1.693              1.477
 Vibration    13          0.704              1.642              1.327
 Vibration    14          0.739              1.542              1.096
 Vibration    15          0.780              1.432              0.901
 Vibration    16          0.836              1.295              0.711
 Vibration    17          0.912              1.126              0.532
 Vibration    18          0.981              0.989              0.416

                           ! Non-Optimized Parameters !
 Normal termination of Gaussian 16 at Tue Jun  1 00:13:33 2021.
