 Gaussian 16, Revision A.03,
 Gaussian 16:  ES64L-G16RevA.03 25-Dec-2016

 -----------------------------
 # opt freq b3lyp/6-31g(2df,p)
 -----------------------------

 -------------------
 Title Card Required
 -------------------
 Symbolic Z-matrix:
 Charge =  0 Multiplicity = 1

 SCF Done:  E(RB3LYP) =  -346.567100484     A.U. after   13 cycles
 SCF Done:  E(RB3LYP) =  -346.568932316     A.U. after   10 cycles
 SCF Done:  E(RB3LYP) =  -346.569122749     A.U. after   10 cycles
 SCF Done:  E(RB3LYP) =  -346.569408264     A.U. after   11 cycles
 SCF Done:  E(RB3LYP) =  -346.569156081     A.U. after   13 cycles
 SCF Done:  E(RB3LYP) =  -346.571303270     A.U. after   12 cycles
 SCF Done:  E(RB3LYP) =  -346.532173301     A.U. after   12 cycles
 SCF Done:  E(RB3LYP) =  -346.572262505     A.U. after   12 cycles
 SCF Done:  E(RB3LYP) =  -346.572473556     A.U. after   10 cycles
 SCF Done:  E(RB3LYP) =  -346.567356918     A.U. after   12 cycles
 SCF Done:  E(RB3LYP) =  -346.573416596     A.U. after   10 cycles
 SCF Done:  E(RB3LYP) =  -346.574308568     A.U. after   11 cycles
 SCF Done:  E(RB3LYP) =  -346.574713099     A.U. after   10 cycles
 SCF Done:  E(RB3LYP) =  -346.574968292     A.U. after   10 cycles
 SCF Done:  E(RB3LYP) =  -346.575010357     A.U. after    9 cycles
 SCF Done:  E(RB3LYP) =  -346.575033518     A.U. after    9 cycles
 SCF Done:  E(RB3LYP) =  -346.575057137     A.U. after    9 cycles
 SCF Done:  E(RB3LYP) =  -346.575059692     A.U. after    8 cycles
 SCF Done:  E(RB3LYP) =  -346.575060065     A.U. after    7 cycles
 Optimization completed.
    -- Stationary point found.
 Normal termination of Gaussian 16 at Mon May 31 14:44:54 2021.

 ----------------------------------------------------------------------
 #N Geom=AllCheck Guess=TCheck SCRF=Check GenChk RB3LYP/6-31G(2df,p) Fr
 eq
 ----------------------------------------------------------------------

 Structure from the checkpoint file:  "CCNCdCCpCpN.chk"
 -------------------
 Title Card Required
 -------------------
 Charge =  0 Multiplicity = 1

                         Standard orientation:
 ---------------------------------------------------------------------
 Center     Atomic      Atomic             Coordinates (Angstroms)
 Number     Number       Type             X           Y           Z
 ---------------------------------------------------------------------
      1          6           0       -3.981155   -0.168606    0.250467
      2          6           0       -2.670354    0.486207   -0.175899
      3          7           0       -1.539086   -0.398082    0.071607
      4          6           0       -0.248675    0.110180   -0.012135
      5          6           0        0.840883   -0.555961   -0.411892
      6          6           0        2.259779   -0.050828   -0.380717
      7          6           0        2.408200    1.384880    0.143963
      8          7           0        3.081605   -1.039177    0.348935
      9          1           0       -4.824025    0.507573    0.080009
     10          1           0       -3.953431   -0.436620    1.310429
     11          1           0       -4.169846   -1.082606   -0.324432
     12          1           0       -2.505956    1.401630    0.405302
     13          1           0       -2.737041    0.796478   -1.233119
     14          1           0       -1.643458   -1.306449   -0.362998
     15          1           0       -0.177816    1.137526    0.337086
     16          1           0        0.739171   -1.582975   -0.759529
     17          1           0        2.645526   -0.063264   -1.412708
     18          1           0        2.053707    1.464057    1.178077
     19          1           0        1.849262    2.103456   -0.465822
     20          1           0        3.461490    1.683953    0.127325
     21          1           0        2.764798   -1.076006    1.315428
     22          1           0        4.047921   -0.721163    0.378443
 ---------------------------------------------------------------------

 SCF Done:  E(RB3LYP) =  -346.575060065     A.U. after    1 cycles

 The electronic state is 1-A.
 Alpha  occ. eigenvalues --  -14.32790 -14.29426 -10.21430 -10.20281 -10.19900
 Alpha  occ. eigenvalues --  -10.17961 -10.16612 -10.15144  -0.91751  -0.86971
 Alpha  occ. eigenvalues --   -0.76787  -0.73295  -0.68982  -0.62234  -0.60946
 Alpha  occ. eigenvalues --   -0.55044  -0.48973  -0.47577  -0.46376  -0.44077
 Alpha  occ. eigenvalues --   -0.42425  -0.40566  -0.39783  -0.38130  -0.37551
 Alpha  occ. eigenvalues --   -0.36166  -0.35596  -0.33801  -0.33081  -0.29835
 Alpha  occ. eigenvalues --   -0.22670  -0.18752
 Alpha virt. eigenvalues --    0.04567   0.09100   0.09887   0.10599   0.12990
 Alpha virt. eigenvalues --    0.14028   0.14836   0.15718   0.16239   0.16549
 Alpha virt. eigenvalues --    0.16597   0.18487   0.19260   0.19992   0.21046

 Mulliken charges:
               1
     1  C   -0.385641
     2  C   -0.112680
     3  N   -0.301904
     4  C    0.055015
     5  C   -0.142414
     6  C    0.018538
     7  C   -0.393949
     8  N   -0.510134
     9  H    0.117755
    10  H    0.127811
    11  H    0.114737
    12  H    0.109986
    13  H    0.091655
    14  H    0.226315
    15  H    0.088258
    16  H    0.069363
    17  H    0.078128
    18  H    0.108891
    19  H    0.111546
    20  H    0.099093
    21  H    0.215699
    22  H    0.213930
 Sum of Mulliken charges =  -0.00000

 Dipole moment (field-independent basis, Debye):
    X=             -1.1875    Y=              1.0886    Z=              0.0678  Tot=              1.6123
 Quadrupole moment (field-independent basis, Debye-Ang):
   XX=            -46.1565   YY=            -52.5550   ZZ=            -51.2369
   XY=              3.5308   XZ=              2.7263   YZ=              0.6993

  Exact polarizability: 121.213  -4.288  74.615  -2.097   1.752  63.520
 Approx polarizability: 146.727 -10.783 109.342  -7.676   4.439  96.991

                      1                      2                      3
                      A                      A                      A
 Frequencies --     58.6302                64.3035               100.6855
 Red. masses --      3.1971                 1.8890                 3.2483
 Frc consts  --      0.0065                 0.0046                 0.0194
 IR Inten    --      1.2546                 0.8337                 0.8599

                      4                      5                      6
                      A                      A                      A
 Frequencies --    135.5195               209.3014               249.5376
 Red. masses --      2.5344                 2.4167                 1.2518
 Frc consts  --      0.0274                 0.0624                 0.0459
 IR Inten    --      1.9725                 7.4543                 0.7920

                      7                      8                      9
                      A                      A                      A
 Frequencies --    276.8639               283.0787               300.4224
 Red. masses --      1.6623                 1.1429                 1.2140
 Frc consts  --      0.0751                 0.0540                 0.0646
 IR Inten    --      0.1099                10.3647                28.7747

                     10                     11                     12
                      A                      A                      A
 Frequencies --    349.1190               394.8297               451.4223
 Red. masses --      2.8994                 2.5136                 2.4437
 Frc consts  --      0.2082                 0.2309                 0.2934
 IR Inten    --     15.1710                 0.8155                 6.5526

                     13                     14                     15
                      A                      A                      A
 Frequencies --    524.8199               587.3109               662.2980
 Red. masses --      3.6025                 2.4204                 1.3306
 Frc consts  --      0.5846                 0.4919                 0.3439
 IR Inten    --      0.2562                 9.3652                87.9201

                     16                     17                     18
                      A                      A                      A
 Frequencies --    808.5507               823.2040               837.7834
 Red. masses --      1.1230                 3.0165                 1.8016
 Frc consts  --      0.4325                 1.2044                 0.7450
 IR Inten    --      2.8728                18.7284                11.3743

                     19                     20                     21
                      A                      A                      A
 Frequencies --    896.3845               921.7173               966.3710
 Red. masses --      1.4827                 1.5831                 1.7809
 Frc consts  --      0.7019                 0.7924                 0.9799
 IR Inten    --    133.5892                11.8688                 2.0772

                     22                     23                     24
                      A                      A                      A
 Frequencies --    996.9321              1014.8270              1054.1170
 Red. masses --      1.1348                 1.3153                 2.7835
 Frc consts  --      0.6645                 0.7981                 1.8223
 IR Inten    --     35.8908                 3.9540                 1.2702

                     25                     26                     27
                      A                      A                      A
 Frequencies --   1089.8956              1134.4925              1159.3808
 Red. masses --      2.2885                 1.6424                 1.9041
 Frc consts  --      1.6017                 1.2455                 1.5080
 IR Inten    --      4.7902                27.2338                42.7992

                     28                     29                     30
                      A                      A                      A
 Frequencies --   1182.3903              1210.9073              1259.5567
 Red. masses --      1.7758                 1.6586                 2.5712
 Frc consts  --      1.4627                 1.4329                 2.4034
 IR Inten    --     58.4512                 9.4335               139.1408

                     31                     32                     33
                      A                      A                      A
 Frequencies --   1281.7144              1314.8522              1349.8188
 Red. masses --      1.2926                 1.3536                 1.1874
 Frc consts  --      1.2511                 1.3787                 1.2747
 IR Inten    --      9.2341                 2.4899                 6.0993

                     34                     35                     36
                      A                      A                      A
 Frequencies --   1363.6924              1388.6905              1400.5734
 Red. masses --      1.3991                 1.2807                 1.2994
 Frc consts  --      1.5330                 1.4552                 1.5018
 IR Inten    --     27.5415                26.4585                23.8995

                     37                     38                     39
                      A                      A                      A
 Frequencies --   1401.3497              1414.5567              1481.6000
 Red. masses --      1.2890                 1.3139                 1.1850
 Frc consts  --      1.4914                 1.5490                 1.5326
 IR Inten    --      6.5925                20.6363                16.4099

                     40                     41                     42
                      A                      A                      A
 Frequencies --   1492.0030              1495.6778              1499.0738
 Red. masses --      1.0463                 1.0597                 1.0646
 Frc consts  --      1.3722                 1.3967                 1.4095
 IR Inten    --      3.8583                 9.4232                 0.4608

                     43                     44                     45
                      A                      A                      A
 Frequencies --   1507.1015              1519.9787              1647.0883
 Red. masses --      1.1834                 1.0932                 1.0943
 Frc consts  --      1.5837                 1.4880                 1.7492
 IR Inten    --      7.4099                14.0471                25.3123

                     46                     47                     48
                      A                      A                      A
 Frequencies --   1738.3952              2948.2991              2969.3322
 Red. masses --      5.1643                 1.0730                 1.0819
 Frc consts  --      9.1951                 5.4951                 5.6201
 IR Inten    --    150.9021                85.0715                44.3386

                     49                     50                     51
                      A                      A                      A
 Frequencies --   3021.6864              3034.0239              3046.6444
 Red. masses --      1.0348                 1.0394                 1.0846
 Frc consts  --      5.5668                 5.6374                 5.9314
 IR Inten    --     19.2976                19.2485                21.5067

                     52                     53                     54
                      A                      A                      A
 Frequencies --   3092.7230              3094.0568              3101.2033
 Red. masses --      1.1011                 1.1014                 1.0991
 Frc consts  --      6.2055                 6.2126                 6.2279
 IR Inten    --     34.4533                38.7527                35.6783

                     55                     56                     57
                      A                      A                      A
 Frequencies --   3120.5445              3134.4372              3161.8629
 Red. masses --      1.1025                 1.0881                 1.0871
 Frc consts  --      6.3255                 6.2986                 6.4032
 IR Inten    --     28.0556                20.2605                13.9718

                     58                     59                     60
                      A                      A                      A
 Frequencies --   3459.4239              3543.2651              3559.6931
 Red. masses --      1.0485                 1.0922                 1.0741
 Frc consts  --      7.3932                 8.0788                 8.0186
 IR Inten    --      8.6051                 2.4986                 3.5458

 - Thermochemistry -
 -------------------
 Temperature   298.150 Kelvin.  Pressure   1.00000 Atm.
 Atom     1 has atomic number  6 and mass  12.00000

 Molecular mass:   114.11570 amu.
 Principal axes and moments of inertia in atomic units:
                           1         2         3
     Eigenvalues --   303.903462584.650202768.49664
           X            0.99996   0.00848   0.00234
           Y           -0.00852   0.99983   0.01645
           Z           -0.00220  -0.01647   0.99986
 This molecule is an asymmetric top.
 Rotational symmetry number  1.
 Rotational temperatures (Kelvin)      0.28500     0.03351     0.03129
 Rotational constants (GHZ):           5.93853     0.69825     0.65188
 Zero-point vibrational energy     523892.7 (Joules/Mol)
                                  125.21335 (Kcal/Mol)
 Warning -- explicit consideration of  14 degrees of freedom as
           vibrations may cause significant error
 Vibrational temperatures:     84.36    92.52   144.86   194.98   301.14
          (Kelvin)            359.03   398.35   407.29   432.24   502.30
                              568.07   649.50   755.10   845.01   952.90
                             1163.32  1184.41  1205.38  1289.70  1326.15
                             1390.39  1434.36  1460.11  1516.64  1568.12
                             1632.28  1668.09  1701.20  1742.23  1812.22
                             1844.10  1891.78  1942.09  1962.05  1998.02
                             2015.11  2016.23  2035.23  2131.69  2146.66
                             2151.95  2156.83  2168.38  2186.91  2369.79
                             2501.16  4241.94  4272.21  4347.53  4365.28
                             4383.44  4449.74  4451.66  4461.94  4489.77
                             4509.76  4549.22  4977.34  5097.97  5121.60

 Zero-point correction=                           0.199540 (Hartree/Particle)
 Thermal correction to Energy=                    0.209866
 Thermal correction to Enthalpy=                  0.210811
 Thermal correction to Gibbs Free Energy=         0.163877
 Sum of electronic and zero-point Energies=           -346.375520
 Sum of electronic and thermal Energies=              -346.365194
 Sum of electronic and thermal Enthalpies=            -346.364249
 Sum of electronic and thermal Free Energies=         -346.411183

                     E (Thermal)             CV                S
                      KCal/Mol        Cal/Mol-Kelvin    Cal/Mol-Kelvin
 Total                  131.693             37.177             98.781
 Electronic               0.000              0.000              0.000
 Translational            0.889              2.981             40.112
 Rotational               0.889              2.981             29.165
 Vibrational            129.916             31.215             29.504
 Vibration     1          0.596              1.974              4.503
 Vibration     2          0.597              1.971              4.321
 Vibration     3          0.604              1.949              3.441
 Vibration     4          0.613              1.918              2.866
 Vibration     5          0.642              1.827              2.050
 Vibration     6          0.662              1.764              1.734
 Vibration     7          0.678              1.716              1.553
 Vibration     8          0.682              1.705              1.515
 Vibration     9          0.693              1.673              1.415
 Vibration    10          0.726              1.577              1.170
 Vibration    11          0.762              1.481              0.982
 Vibration    12          0.810              1.358              0.791
 Vibration    13          0.880              1.195              0.599
 Vibration    14          0.944              1.059              0.472

 Optimization completed.
    -- Stationary point found.
 Normal termination of Gaussian 16 at Mon May 31 15:09:22 2021.
