 Gaussian 16, Revision A.03,
 Gaussian 16:  ES64L-G16RevA.03 25-Dec-2016

 -----------------------------
 # opt freq b3lyp/6-31g(2df,p)
 -----------------------------

 -------------------
 Title Card Required
 -------------------
 Symbolic Z-matrix:
 Charge =  0 Multiplicity = 1

 SCF Done:  E(RB3LYP) =  -496.554372742     A.U. after   14 cycles
 SCF Done:  E(RB3LYP) =  -496.558967842     A.U. after   13 cycles
 SCF Done:  E(RB3LYP) =  -496.561683196     A.U. after   12 cycles
 SCF Done:  E(RB3LYP) =  -496.561947722     A.U. after   12 cycles
 SCF Done:  E(RB3LYP) =  -496.562046855     A.U. after   11 cycles
 SCF Done:  E(RB3LYP) =  -496.562126395     A.U. after   11 cycles
 SCF Done:  E(RB3LYP) =  -496.562215401     A.U. after   12 cycles
 SCF Done:  E(RB3LYP) =  -496.562193139     A.U. after   13 cycles
 SCF Done:  E(RB3LYP) =  -496.562430240     A.U. after   13 cycles
 SCF Done:  E(RB3LYP) =  -496.562022944     A.U. after   14 cycles
 SCF Done:  E(RB3LYP) =  -496.563296823     A.U. after   10 cycles
 SCF Done:  E(RB3LYP) =  -496.563367511     A.U. after   12 cycles
 SCF Done:  E(RB3LYP) =  -496.563399151     A.U. after   12 cycles
 SCF Done:  E(RB3LYP) =  -496.563419142     A.U. after   11 cycles
 SCF Done:  E(RB3LYP) =  -496.563432664     A.U. after   12 cycles
 SCF Done:  E(RB3LYP) =  -496.563435559     A.U. after   11 cycles
 SCF Done:  E(RB3LYP) =  -496.563435877     A.U. after    8 cycles
 SCF Done:  E(RB3LYP) =  -496.563435926     A.U. after    8 cycles
 SCF Done:  E(RB3LYP) =  -496.563435937     A.U. after    7 cycles
 Optimization completed.
    -- Stationary point found.
 Normal termination of Gaussian 16 at Tue Jun  1 00:08:41 2021.

 ----------------------------------------------------------------------
 #N Geom=AllCheck Guess=TCheck SCRF=Check GenChk RB3LYP/6-31G(2df,p) Fr
 eq
 ----------------------------------------------------------------------

 Structure from the checkpoint file:  "CCNCCpCpCCNNdN.chk"
 -------------------
 Title Card Required
 -------------------
 Charge =  0 Multiplicity = 1

                         Standard orientation:
 ---------------------------------------------------------------------
 Center     Atomic      Atomic             Coordinates (Angstroms)
 Number     Number       Type             X           Y           Z
 ---------------------------------------------------------------------
      1          6           0       -5.317761   -0.397543   -0.409168
      2          6           0       -3.999540   -0.875226    0.192786
      3          7           0       -2.896428   -0.004758   -0.203793
      4          6           0       -1.618599   -0.380048    0.388577
      5          6           0       -0.443205    0.446866   -0.158011
      6          6           0       -0.626401    1.946229    0.123448
      7          6           0        0.877310   -0.096216    0.419794
      8          6           0        2.131502    0.401163   -0.305602
      9          7           0        3.336279   -0.162919    0.274204
     10          7           0        4.351031   -0.470044   -0.534910
     11          7           0        5.443505   -0.624975    0.067470
     12          1           0       -6.135342   -1.074443   -0.144168
     13          1           0       -5.246212   -0.344367   -1.499295
     14          1           0       -5.581970    0.600356   -0.039486
     15          1           0       -3.773735   -1.887004   -0.168856
     16          1           0       -4.102507   -0.958323    1.292067
     17          1           0       -3.126999    0.947220    0.063357
     18          1           0       -1.444983   -1.436491    0.146894
     19          1           0       -1.622326   -0.315977    1.496077
     20          1           0       -0.432083    0.301538   -1.246926
     21          1           0       -0.718835    2.133542    1.200686
     22          1           0       -1.521511    2.337830   -0.368953
     23          1           0        0.217292    2.537255   -0.243936
     24          1           0        0.877740   -1.191707    0.374529
     25          1           0        0.943556    0.167561    1.485108
     26          1           0        2.175204    1.499817   -0.300973
     27          1           0        2.121823    0.084263   -1.352268
     28          1           0        3.596634    0.069169    1.231107
     29          1           0        6.113707   -0.902722   -0.656706
 ---------------------------------------------------------------------

 SCF Done:  E(RB3LYP) =  -496.563435937     A.U. after    1 cycles

 The electronic state is 1-A.
 Alpha  occ. eigenvalues --  -14.40048 -14.36715 -14.32989 -14.30966 -10.22104
 Alpha  occ. eigenvalues --  -10.20374 -10.20248 -10.19088 -10.18704 -10.17926
 Alpha  occ. eigenvalues --  -10.17445  -1.05386  -0.90237  -0.89565  -0.80820
 Alpha  occ. eigenvalues --   -0.74827  -0.72458  -0.67705  -0.64349  -0.61964
 Alpha  occ. eigenvalues --   -0.60254  -0.56457  -0.52601  -0.49196  -0.47567
 Alpha  occ. eigenvalues --   -0.46465  -0.45672  -0.43999  -0.43362  -0.41228
 Alpha  occ. eigenvalues --   -0.40666  -0.40165  -0.38807  -0.37512  -0.37074
 Alpha  occ. eigenvalues --   -0.36536  -0.35282  -0.34607  -0.33191  -0.32758
 Alpha  occ. eigenvalues --   -0.32134  -0.23472  -0.23366  -0.22101
 Alpha virt. eigenvalues --   -0.00522   0.07425   0.09490   0.09838   0.10740
 Alpha virt. eigenvalues --    0.11354   0.12465   0.12729   0.13677   0.14407
 Alpha virt. eigenvalues --    0.15747   0.16033   0.16805   0.16985   0.18073

 Mulliken charges:
               1
     1  C   -0.389685
     2  C   -0.096426
     3  N   -0.299907
     4  C   -0.131887
     5  C    0.018197
     6  C   -0.405644
     7  C   -0.193803
     8  C   -0.141228
     9  N   -0.179014
    10  N   -0.049937
    11  N   -0.370343
    12  H    0.114802
    13  H    0.126688
    14  H    0.110049
    15  H    0.101855
    16  H    0.073846
    17  H    0.210607
    18  H    0.098367
    19  H    0.070402
    20  H    0.083305
    21  H    0.111324
    22  H    0.120337
    23  H    0.118522
    24  H    0.106526
    25  H    0.091957
    26  H    0.106517
    27  H    0.130163
    28  H    0.225855
    29  H    0.238556
 Sum of Mulliken charges =  -0.00000

 Dipole moment (field-independent basis, Debye):
    X=             -2.0560    Y=              0.9742    Z=              0.6808  Tot=              2.3748
 Quadrupole moment (field-independent basis, Debye-Ang):
   XX=            -78.2589   YY=            -68.7173   ZZ=            -70.4917
   XY=              1.6780   XZ=             -4.2503   YZ=              1.4089

  Exact polarizability: 157.304  -6.448  91.819  -1.770   0.733  89.115
 Approx polarizability: 183.645 -11.024 135.144  -1.905   1.952 140.655

                      1                      2                      3
                      A                      A                      A
 Frequencies --     24.6864                42.3724                50.0318
 Red. masses --      4.2066                 2.5695                 2.4434
 Frc consts  --      0.0015                 0.0027                 0.0036
 IR Inten    --      0.1904                 0.2678                 0.5896

                      4                      5                      6
                      A                      A                      A
 Frequencies --     75.6761                78.9234               101.1294
 Red. masses --      1.8768                 3.5408                 2.9527
 Frc consts  --      0.0063                 0.0130                 0.0178
 IR Inten    --      1.3132                 0.2248                 1.1470

                      7                      8                      9
                      A                      A                      A
 Frequencies --    132.3708               150.2948               207.5633
 Red. masses --      3.2017                 2.3080                 3.4789
 Frc consts  --      0.0331                 0.0307                 0.0883
 IR Inten    --      1.1384                 3.1642                 7.0288

                     10                     11                     12
                      A                      A                      A
 Frequencies --    239.3361               242.0056               256.8271
 Red. masses --      2.4576                 1.4947                 1.1593
 Frc consts  --      0.0829                 0.0516                 0.0451
 IR Inten    --      0.5475                 0.1080                 0.9352

                     13                     14                     15
                      A                      A                      A
 Frequencies --    312.0370               317.6569               385.6321
 Red. masses --      2.8005                 2.9780                 2.6641
 Frc consts  --      0.1607                 0.1770                 0.2334
 IR Inten    --      0.5933                 2.3437                 1.8785

                     16                     17                     18
                      A                      A                      A
 Frequencies --    425.9456               493.8133               522.1916
 Red. masses --      2.4555                 2.7115                 2.8825
 Frc consts  --      0.2625                 0.3896                 0.4631
 IR Inten    --      0.6810                 0.2412                 6.0536

                     19                     20                     21
                      A                      A                      A
 Frequencies --    634.9656               680.0239               773.1242
 Red. masses --      1.6234                 2.3869                 1.2147
 Frc consts  --      0.3856                 0.6503                 0.4278
 IR Inten    --    124.5327                36.3515                 4.4045

                     22                     23                     24
                      A                      A                      A
 Frequencies --    779.2348               816.0159               851.0381
 Red. masses --      1.2844                 1.1255                 2.4053
 Frc consts  --      0.4595                 0.4416                 1.0264
 IR Inten    --     62.7360                 1.0481                 1.0960

                     25                     26                     27
                      A                      A                      A
 Frequencies --    910.5892               921.0532               928.9635
 Red. masses --      1.3926                 1.1731                 1.6284
 Frc consts  --      0.6804                 0.5864                 0.8279
 IR Inten    --      2.9905                35.9352                 3.4519

                     28                     29                     30
                      A                      A                      A
 Frequencies --    948.7231               983.4828              1033.7383
 Red. masses --      1.4576                 1.7452                 2.8875
 Frc consts  --      0.7730                 0.9946                 1.8180
 IR Inten    --      3.6302                 6.1102                 2.4195

                     31                     32                     33
                      A                      A                      A
 Frequencies --   1050.7751              1058.7757              1102.4991
 Red. masses --      2.0129                 2.9835                 2.0767
 Frc consts  --      1.3095                 1.9705                 1.4873
 IR Inten    --     49.8870                 2.9646                 5.7684

                     34                     35                     36
                      A                      A                      A
 Frequencies --   1128.7021              1145.6475              1162.8703
 Red. masses --      1.5680                 2.8880                 2.6952
 Frc consts  --      1.1769                 2.2333                 2.1473
 IR Inten    --      1.5177                98.6357                 6.9036

                     37                     38                     39
                      A                      A                      A
 Frequencies --   1169.7463              1199.3964              1212.5673
 Red. masses --      2.5871                 2.1698                 1.9441
 Frc consts  --      2.0857                 1.8390                 1.6841
 IR Inten    --     74.4522                91.8679                37.5620

                     40                     41                     42
                      A                      A                      A
 Frequencies --   1249.6102              1270.5654              1282.3751
 Red. masses --      1.4464                 1.2429                 1.1866
 Frc consts  --      1.3308                 1.1822                 1.1497
 IR Inten    --     48.5856                 3.5509                 1.1358

                     43                     44                     45
                      A                      A                      A
 Frequencies --   1314.4273              1324.8071              1345.4701
 Red. masses --      1.1688                 1.2195                 1.2603
 Frc consts  --      1.1898                 1.2610                 1.3442
 IR Inten    --      3.1986                 0.6889                 1.5938

                     46                     47                     48
                      A                      A                      A
 Frequencies --   1368.0542              1381.6037              1401.8936
 Red. masses --      1.3301                 1.3204                 1.2644
 Frc consts  --      1.4667                 1.4850                 1.4641
 IR Inten    --     27.8005                 7.3374                 5.2088

                     49                     50                     51
                      A                      A                      A
 Frequencies --   1405.5799              1410.2397              1428.6575
 Red. masses --      1.4239                 1.3073                 1.4109
 Frc consts  --      1.6575                 1.5318                 1.6967
 IR Inten    --     17.1913                12.4902                 2.8825

                     52                     53                     54
                      A                      A                      A
 Frequencies --   1474.0594              1479.7316              1483.5870
 Red. masses --      1.9342                 1.1240                 1.0881
 Frc consts  --      2.4762                 1.4500                 1.4111
 IR Inten    --      1.2536                15.6263                 6.0305

                     55                     56                     57
                      A                      A                      A
 Frequencies --   1493.8483              1495.6591              1497.5630
 Red. masses --      1.2348                 1.0775                 1.0646
 Frc consts  --      1.6236                 1.4201                 1.4067
 IR Inten    --      4.5382                 7.7001                 4.5965

                     58                     59                     60
                      A                      A                      A
 Frequencies --   1498.6296              1506.1577              1509.2382
 Red. masses --      1.0933                 1.1335                 1.1168
 Frc consts  --      1.4467                 1.5149                 1.4988
 IR Inten    --      3.5807                 2.4527                28.9378

                     61                     62                     63
                      A                      A                      A
 Frequencies --   1520.1975              1526.6923              1579.9618
 Red. masses --      1.0800                 1.0870                 4.5433
 Frc consts  --      1.4706                 1.4927                 6.6821
 IR Inten    --     10.1249                 4.8469               184.7765

                     64                     65                     66
                      A                      A                      A
 Frequencies --   2891.6203              2913.7579              2997.3376
 Red. masses --      1.0723                 1.0737                 1.0698
 Frc consts  --      5.2828                 5.3708                 5.6627
 IR Inten    --     52.4645               100.2598                39.8932

                     67                     68                     69
                      A                      A                      A
 Frequencies --   3005.1235              3017.3765              3027.3873
 Red. masses --      1.0684                 1.0739                 1.0677
 Frc consts  --      5.6848                 5.7605                 5.7656
 IR Inten    --      5.3351                34.6954                16.9147

                     70                     71                     72
                      A                      A                      A
 Frequencies --   3028.0046              3033.3042              3035.7694
 Red. masses --      1.0490                 1.0512                 1.0834
 Frc consts  --      5.6670                 5.6989                 5.8825
 IR Inten    --     14.6395                20.3226                44.1270

                     73                     74                     75
                      A                      A                      A
 Frequencies --   3059.4635              3096.2468              3097.6386
 Red. masses --      1.0948                 1.0968                 1.0982
 Frc consts  --      6.0378                 6.1953                 6.2084
 IR Inten    --     38.7464                28.0633                32.8847

                     76                     77                     78
                      A                      A                      A
 Frequencies --   3098.1232              3107.3470              3118.5045
 Red. masses --      1.0931                 1.0999                 1.1023
 Frc consts  --      6.1816                 6.2575                 6.3159
 IR Inten    --     26.9424                39.5436                26.8317

                     79                     80                     81
                      A                      A                      A
 Frequencies --   3392.0995              3472.8465              3511.3399
 Red. masses --      1.0746                 1.0738                 1.0729
 Frc consts  --      7.2850                 7.6302                 7.7935
 IR Inten    --      0.5789                 1.3218                 0.3479

 - Thermochemistry -
 -------------------
 Temperature   298.150 Kelvin.  Pressure   1.00000 Atm.
 Atom     1 has atomic number  6 and mass  12.00000

 Molecular mass:   158.15315 amu.
 Principal axes and moments of inertia in atomic units:
                           1         2         3
     Eigenvalues --   469.555316507.337166766.64855
           X            0.99999   0.00474   0.00006
           Y           -0.00474   0.99998  -0.00350
           Z           -0.00008   0.00350   0.99999
 This molecule is an asymmetric top.
 Rotational symmetry number  1.
 Warning -- assumption of classical behavior for rotation
           may cause significant error
 Rotational temperatures (Kelvin)      0.18446     0.01331     0.01280
 Rotational constants (GHZ):           3.84351     0.27734     0.26671
 Zero-point vibrational energy     686072.3 (Joules/Mol)
                                  163.97521 (Kcal/Mol)
 Warning -- explicit consideration of  18 degrees of freedom as
           vibrations may cause significant error
 Vibrational temperatures:     35.52    60.96    71.98   108.88   113.55
          (Kelvin)            145.50   190.45   216.24   298.64   344.35
                              348.19   369.52   448.95   457.04   554.84
                              612.84   710.49   751.32   913.57   978.40
                             1112.35  1121.15  1174.06  1224.45  1310.13
                             1325.19  1336.57  1365.00  1415.01  1487.32
                             1511.83  1523.34  1586.25  1623.95  1648.33
                             1673.11  1683.00  1725.66  1744.61  1797.91
                             1828.06  1845.05  1891.17  1906.10  1935.83
                             1968.32  1987.82  2017.01  2022.32  2029.02
                             2055.52  2120.84  2129.00  2134.55  2149.31
                             2151.92  2154.66  2156.19  2167.03  2171.46
                             2187.23  2196.57  2273.21  4160.40  4192.25
                             4312.50  4323.70  4341.33  4355.74  4356.62
                             4364.25  4367.80  4401.89  4454.81  4456.81
                             4457.51  4470.78  4486.83  4880.47  4996.65
                             5052.03

 Zero-point correction=                           0.261311 (Hartree/Particle)
 Thermal correction to Energy=                    0.275410
 Thermal correction to Enthalpy=                  0.276354
 Thermal correction to Gibbs Free Energy=         0.218428
 Sum of electronic and zero-point Energies=           -496.302125
 Sum of electronic and thermal Energies=              -496.288026
 Sum of electronic and thermal Enthalpies=            -496.287082
 Sum of electronic and thermal Free Energies=         -496.345008

                     E (Thermal)             CV                S
                      KCal/Mol        Cal/Mol-Kelvin    Cal/Mol-Kelvin
 Total                  172.822             49.110            121.915
 Electronic               0.000              0.000              0.000
 Translational            0.889              2.981             41.084
 Rotational               0.889              2.981             31.403
 Vibrational            171.045             43.149             49.428
 Vibration     1          0.593              1.985              6.216
 Vibration     2          0.595              1.980              5.145
 Vibration     3          0.595              1.978              4.816
 Vibration     4          0.599              1.965              4.000
 Vibration     5          0.600              1.963              3.917
 Vibration     6          0.604              1.948              3.432
 Vibration     7          0.612              1.921              2.911
 Vibration     8          0.618              1.902              2.668
 Vibration     9          0.641              1.829              2.065
 Vibration    10          0.657              1.780              1.808
 Vibration    11          0.658              1.776              1.788
 Vibration    12          0.666              1.751              1.683
 Vibration    13          0.700              1.651              1.352
 Vibration    14          0.704              1.640              1.322
 Vibration    15          0.754              1.501              1.017
 Vibration    16          0.788              1.414              0.872
 Vibration    17          0.849              1.264              0.674
 Vibration    18          0.877              1.201              0.605

                           ! Non-Optimized Parameters !
 Normal termination of Gaussian 16 at Tue Jun  1 01:01:28 2021.
