 Gaussian 16, Revision A.03,
 Gaussian 16:  ES64L-G16RevA.03 25-Dec-2016

 -----------------------------
 # opt freq b3lyp/6-31g(2df,p)
 -----------------------------

 -------------------
 Title Card Required
 -------------------
 Symbolic Z-matrix:
 Charge =  0 Multiplicity = 1

 SCF Done:  E(RB3LYP) =  -384.667042718     A.U. after   14 cycles
 SCF Done:  E(RB3LYP) =  -384.690750178     A.U. after   12 cycles
 SCF Done:  E(RB3LYP) =  -384.691389624     A.U. after   11 cycles
 SCF Done:  E(RB3LYP) =  -384.691514054     A.U. after   10 cycles
 SCF Done:  E(RB3LYP) =  -384.691532023     A.U. after    9 cycles
 SCF Done:  E(RB3LYP) =  -384.691540472     A.U. after    9 cycles
 SCF Done:  E(RB3LYP) =  -384.691543532     A.U. after    8 cycles
 SCF Done:  E(RB3LYP) =  -384.691544205     A.U. after    7 cycles
 SCF Done:  E(RB3LYP) =  -384.691544287     A.U. after    7 cycles
 Optimization completed.
    -- Stationary point found.
 Normal termination of Gaussian 16 at Tue Jun  1 06:06:01 2021.

 ----------------------------------------------------------------------
 #N Geom=AllCheck Guess=TCheck SCRF=Check GenChk RB3LYP/6-31G(2df,p) Fr
 eq
 ----------------------------------------------------------------------

 Structure from the checkpoint file:  "CCNCCpCpCCtN.chk"
 -------------------
 Title Card Required
 -------------------
 Charge =  0 Multiplicity = 1

                         Standard orientation:
 ---------------------------------------------------------------------
 Center     Atomic      Atomic             Coordinates (Angstroms)
 Number     Number       Type             X           Y           Z
 ---------------------------------------------------------------------
      1          6           0       -4.136473    0.260187   -0.387713
      2          6           0       -2.946245   -0.558743    0.102458
      3          7           0       -1.688026    0.128373   -0.177602
      4          6           0       -0.515868   -0.578156    0.315997
      5          6           0        0.793819    0.090653   -0.129260
      6          6           0        0.941483    1.518403    0.409877
      7          6           0        1.980195   -0.800797    0.311883
      8          6           0        3.271443   -0.322438   -0.176238
      9          7           0        4.284911    0.067953   -0.571719
     10          1           0       -5.074614   -0.274458   -0.212818
     11          1           0       -4.046147    0.468683   -1.457515
     12          1           0       -4.199538    1.219516    0.139289
     13          1           0       -2.922387   -1.524729   -0.418691
     14          1           0       -3.072964   -0.791664    1.177123
     15          1           0       -1.725662    1.054838    0.235865
     16          1           0       -0.551320   -1.596751   -0.092782
     17          1           0       -0.508453   -0.690141    1.419965
     18          1           0        0.788002    0.129300   -1.224488
     19          1           0        0.876796    1.535064    1.504933
     20          1           0        0.162145    2.173226    0.010424
     21          1           0        1.905200    1.949166    0.123674
     22          1           0        1.836886   -1.825985   -0.048720
     23          1           0        2.023737   -0.854998    1.406963
 ---------------------------------------------------------------------

 SCF Done:  E(RB3LYP) =  -384.691544287     A.U. after    1 cycles

 The electronic state is 1-A.
 Alpha  occ. eigenvalues --  -14.32333 -14.31931 -10.23275 -10.21712 -10.21620
 Alpha  occ. eigenvalues --  -10.21117 -10.20998 -10.18622 -10.17995  -0.91288
 Alpha  occ. eigenvalues --   -0.89801  -0.82529  -0.75269  -0.72341  -0.67725
 Alpha  occ. eigenvalues --   -0.61191  -0.58559  -0.52306  -0.49283  -0.48060
 Alpha  occ. eigenvalues --   -0.46668  -0.44574  -0.42910  -0.41577  -0.41170
 Alpha  occ. eigenvalues --   -0.38087  -0.37143  -0.36319  -0.35608  -0.35250
 Alpha  occ. eigenvalues --   -0.34469  -0.33801  -0.31905  -0.31634  -0.23043
 Alpha virt. eigenvalues --    0.03522   0.04281   0.07396   0.08781   0.10259
 Alpha virt. eigenvalues --    0.11376   0.11947   0.14106   0.14483   0.15466
 Alpha virt. eigenvalues --    0.15973   0.16421   0.17016   0.18520   0.18960

 Mulliken charges:
               1
     1  C   -0.390819
     2  C   -0.099553
     3  N   -0.300087
     4  C   -0.133007
     5  C    0.015126
     6  C   -0.411040
     7  C   -0.344507
     8  C    0.263332
     9  N   -0.313619
    10  H    0.117303
    11  H    0.128958
    12  H    0.112238
    13  H    0.103601
    14  H    0.076432
    15  H    0.214194
    16  H    0.099851
    17  H    0.073837
    18  H    0.105872
    19  H    0.113874
    20  H    0.125433
    21  H    0.145655
    22  H    0.148731
    23  H    0.148195
 Sum of Mulliken charges =  -0.00000

 Dipole moment (field-independent basis, Debye):
    X=             -3.9518    Y=             -0.8515    Z=              1.8734  Tot=              4.4555
 Quadrupole moment (field-independent basis, Debye-Ang):
   XX=            -77.1520   YY=            -53.8138   ZZ=            -57.3703
   XY=             -2.9673   XZ=              3.7912   YZ=              0.8509

  Exact polarizability: 115.403   2.930  78.138  -3.252  -1.353  71.501
 Approx polarizability: 141.251   8.896 115.435  -8.927  -3.613 111.909

                      1                      2                      3
                      A                      A                      A
 Frequencies --     47.3338                67.3191                91.4362
 Red. masses --      4.2831                 1.8024                 3.9308
 Frc consts  --      0.0057                 0.0048                 0.0194
 IR Inten    --      2.3316                 1.4269                 2.4740

                      4                      5                      6
                      A                      A                      A
 Frequencies --     96.6917               144.7237               181.6842
 Red. masses --      2.9307                 2.4883                 3.3981
 Frc consts  --      0.0161                 0.0307                 0.0661
 IR Inten    --      5.1224                 0.0916                 6.3863

                      7                      8                      9
                      A                      A                      A
 Frequencies --    248.0959               257.6937               272.4758
 Red. masses --      1.1051                 1.1983                 3.4721
 Frc consts  --      0.0401                 0.0469                 0.1519
 IR Inten    --      0.2810                 1.0697                 0.8421

                     10                     11                     12
                      A                      A                      A
 Frequencies --    308.9296               388.4057               399.9991
 Red. masses --      2.4902                 2.2841                 4.2612
 Frc consts  --      0.1400                 0.2030                 0.4017
 IR Inten    --      0.6658                 0.6405                 1.2766

                     13                     14                     15
                      A                      A                      A
 Frequencies --    424.0292               480.1905               584.8418
 Red. masses --      2.7215                 2.8695                 3.9125
 Frc consts  --      0.2883                 0.3898                 0.7885
 IR Inten    --      0.4135                 1.8997                 0.5470

                     16                     17                     18
                      A                      A                      A
 Frequencies --    774.3947               816.6405               837.5274
 Red. masses --      1.3056                 1.1237                 2.7680
 Frc consts  --      0.4613                 0.4415                 1.1440
 IR Inten    --     63.2064                 1.1728                 0.7232

                     19                     20                     21
                      A                      A                      A
 Frequencies --    879.2880               916.6301               924.6554
 Red. masses --      1.4708                 1.4065                 2.5365
 Frc consts  --      0.6700                 0.6963                 1.2777
 IR Inten    --      1.9233                 0.6645                 0.0725

                     22                     23                     24
                      A                      A                      A
 Frequencies --    944.1589               976.2977              1046.4167
 Red. masses --      1.6154                 2.2113                 3.0351
 Frc consts  --      0.8485                 1.2418                 1.9581
 IR Inten    --      8.3584                 3.0209                 3.5237

                     25                     26                     27
                      A                      A                      A
 Frequencies --   1098.0574              1111.7671              1134.1357
 Red. masses --      2.2845                 1.6314                 1.6570
 Frc consts  --      1.6229                 1.1881                 1.2557
 IR Inten    --      1.8293                11.7822                 2.9923

                     28                     29                     30
                      A                      A                      A
 Frequencies --   1145.5768              1164.5956              1204.5751
 Red. masses --      2.5747                 2.9375                 1.6768
 Frc consts  --      1.9908                 2.3474                 1.4335
 IR Inten    --     22.7557                45.3447                12.9767

                     31                     32                     33
                      A                      A                      A
 Frequencies --   1238.5392              1275.3501              1284.6408
 Red. masses --      1.3844                 1.2330                 1.1986
 Frc consts  --      1.2512                 1.1816                 1.1655
 IR Inten    --      5.3938                 4.9410                 1.1153

                     34                     35                     36
                      A                      A                      A
 Frequencies --   1321.7895              1350.0405              1367.6776
 Red. masses --      1.2163                 1.3521                 1.3448
 Frc consts  --      1.2521                 1.4520                 1.4821
 IR Inten    --      2.0938                15.1883                10.8471

                     37                     38                     39
                      A                      A                      A
 Frequencies --   1381.4488              1403.2774              1412.4636
 Red. masses --      1.3252                 1.2697                 1.2923
 Frc consts  --      1.4901                 1.4731                 1.5190
 IR Inten    --      6.2334                 2.1054                 8.5683

                     40                     41                     42
                      A                      A                      A
 Frequencies --   1431.1229              1464.9961              1481.3029
 Red. masses --      1.4007                 1.0930                 1.1203
 Frc consts  --      1.6903                 1.3821                 1.4483
 IR Inten    --      4.6795                 3.3942                18.7951

                     43                     44                     45
                      A                      A                      A
 Frequencies --   1495.1156              1497.2108              1498.6578
 Red. masses --      1.0625                 1.0430                 1.0821
 Frc consts  --      1.3993                 1.3776                 1.4319
 IR Inten    --      0.5984                12.5770                 5.8994

                     46                     47                     48
                      A                      A                      A
 Frequencies --   1508.4192              1517.6689              1526.6224
 Red. masses --      1.0879                 1.0818                 1.0884
 Frc consts  --      1.4585                 1.4681                 1.4945
 IR Inten    --     12.9714                12.1556                 3.9917

                     49                     50                     51
                      A                      A                      A
 Frequencies --   2360.1930              2888.6505              2917.7231
 Red. masses --     12.6111                 1.0723                 1.0736
 Frc consts  --     41.3901                 5.2716                 5.3848
 IR Inten    --     11.9332                61.8632                94.4916

                     52                     53                     54
                      A                      A                      A
 Frequencies --   3025.7949              3028.4570              3029.7054
 Red. masses --      1.0800                 1.0433                 1.0695
 Frc consts  --      5.8259                 5.6377                 5.7840
 IR Inten    --     10.7377                12.9398                12.4065

                     55                     56                     57
                      A                      A                      A
 Frequencies --   3033.5161              3035.2032              3050.1465
 Red. masses --      1.0623                 1.0529                 1.0818
 Frc consts  --      5.7594                 5.7151                 5.9299
 IR Inten    --      8.8374                47.4039                13.9983

                     58                     59                     60
                      A                      A                      A
 Frequencies --   3075.4896              3099.5222              3101.7247
 Red. masses --      1.1000                 1.0983                 1.0968
 Frc consts  --      6.1303                 6.2168                 6.2172
 IR Inten    --     12.1057                36.6955                24.4573

                     61                     62                     63
                      A                      A                      A
 Frequencies --   3115.7868              3120.3669              3513.6477
 Red. masses --      1.1012                 1.1024                 1.0730
 Frc consts  --      6.2989                 6.3239                 7.8045
 IR Inten    --     20.5148                25.1076                 0.1386

 - Thermochemistry -
 -------------------
 Temperature   298.150 Kelvin.  Pressure   1.00000 Atm.
 Atom     1 has atomic number  6 and mass  12.00000

 Molecular mass:   126.11570 amu.
 Principal axes and moments of inertia in atomic units:
                           1         2         3
     Eigenvalues --   332.389373284.631013449.22125
           X            0.99998   0.00119   0.00680
           Y           -0.00119   1.00000  -0.00007
           Z           -0.00680   0.00006   0.99998
 This molecule is an asymmetric top.
 Rotational symmetry number  1.
 Rotational temperatures (Kelvin)      0.26058     0.02637     0.02511
 Rotational constants (GHZ):           5.42960     0.54945     0.52323
 Zero-point vibrational energy     537247.9 (Joules/Mol)
                                  128.40534 (Kcal/Mol)
 Warning -- explicit consideration of  15 degrees of freedom as
           vibrations may cause significant error
 Vibrational temperatures:     68.10    96.86   131.56   139.12   208.23
          (Kelvin)            261.40   356.95   370.76   392.03   444.48
                              558.83   575.51   610.08   690.89   841.46
                             1114.18  1174.96  1205.02  1265.10  1318.83
                             1330.37  1358.43  1404.67  1505.56  1579.86
                             1599.58  1631.77  1648.23  1675.59  1733.11
                             1781.98  1834.94  1848.31  1901.76  1942.41
                             1967.78  1987.60  2019.00  2032.22  2059.07
                             2107.80  2131.26  2151.14  2154.15  2156.23
                             2170.28  2183.59  2196.47  3395.79  4156.12
                             4197.95  4353.44  4357.27  4359.07  4364.55
                             4366.98  4388.48  4424.94  4459.52  4462.69
                             4482.92  4489.51  5055.36

 Zero-point correction=                           0.204627 (Hartree/Particle)
 Thermal correction to Energy=                    0.215754
 Thermal correction to Enthalpy=                  0.216698
 Thermal correction to Gibbs Free Energy=         0.167363
 Sum of electronic and zero-point Energies=           -384.486917
 Sum of electronic and thermal Energies=              -384.475791
 Sum of electronic and thermal Enthalpies=            -384.474846
 Sum of electronic and thermal Free Energies=         -384.524181

                     E (Thermal)             CV                S
                      KCal/Mol        Cal/Mol-Kelvin    Cal/Mol-Kelvin
 Total                  135.387             39.164            103.833
 Electronic               0.000              0.000              0.000
 Translational            0.889              2.981             40.410
 Rotational               0.889              2.981             29.711
 Vibrational            133.610             33.202             33.713
 Vibration     1          0.595              1.979              4.926
 Vibration     2          0.598              1.970              4.230
 Vibration     3          0.602              1.955              3.629
 Vibration     4          0.603              1.952              3.520
 Vibration     5          0.616              1.908              2.740
 Vibration     6          0.630              1.865              2.311
 Vibration     7          0.662              1.766              1.744
 Vibration     8          0.667              1.750              1.677
 Vibration     9          0.675              1.724              1.580
 Vibration    10          0.698              1.657              1.368
 Vibration    11          0.757              1.495              1.006
 Vibration    12          0.766              1.470              0.963
 Vibration    13          0.786              1.418              0.878
 Vibration    14          0.837              1.294              0.710
 Vibration    15          0.942              1.064              0.476

 Optimization completed.
    -- Stationary point found.
 Normal termination of Gaussian 16 at Tue Jun  1 06:39:28 2021.
