 Gaussian 16, Revision A.03,
 Gaussian 16:  ES64L-G16RevA.03 25-Dec-2016

 -----------------------------
 # opt freq b3lyp/6-31g(2df,p)
 -----------------------------

 -------------------
 Title Card Required
 -------------------
 Symbolic Z-matrix:
 Charge =  0 Multiplicity = 1

 SCF Done:  E(RB3LYP) =  -363.806155468     A.U. after   11 cycles
 SCF Done:  E(RB3LYP) =  -363.811377476     A.U. after   10 cycles
 SCF Done:  E(RB3LYP) =  -363.812056115     A.U. after    9 cycles
 SCF Done:  E(RB3LYP) =  -363.812127577     A.U. after    8 cycles
 SCF Done:  E(RB3LYP) =  -363.812154976     A.U. after    8 cycles
 SCF Done:  E(RB3LYP) =  -363.812158310     A.U. after    7 cycles
 SCF Done:  E(RB3LYP) =  -363.812158961     A.U. after    7 cycles
 SCF Done:  E(RB3LYP) =  -363.812159261     A.U. after    7 cycles
 SCF Done:  E(RB3LYP) =  -363.812159823     A.U. after    7 cycles
 SCF Done:  E(RB3LYP) =  -363.812160871     A.U. after    8 cycles
 SCF Done:  E(RB3LYP) =  -363.812166587     A.U. after   10 cycles
 SCF Done:  E(RB3LYP) =  -363.812169000     A.U. after    8 cycles
 SCF Done:  E(RB3LYP) =  -363.812170226     A.U. after    9 cycles
 SCF Done:  E(RB3LYP) =  -363.812170463     A.U. after    9 cycles
 SCF Done:  E(RB3LYP) =  -363.812170574     A.U. after    8 cycles
 SCF Done:  E(RB3LYP) =  -363.812170621     A.U. after    7 cycles
 SCF Done:  E(RB3LYP) =  -363.812170688     A.U. after    7 cycles
 SCF Done:  E(RB3LYP) =  -363.812170725     A.U. after    7 cycles
 SCF Done:  E(RB3LYP) =  -363.812170738     A.U. after    6 cycles
 Optimization completed.
    -- Stationary point found.
 Normal termination of Gaussian 16 at Tue Jun  1 14:51:39 2021.

 ----------------------------------------------------------------------
 #N Geom=AllCheck Guess=TCheck SCRF=Check GenChk RB3LYP/6-31G(2df,p) Fr
 eq
 ----------------------------------------------------------------------

 Structure from the checkpoint file:  "CCNCNCNC.chk"
 -------------------
 Title Card Required
 -------------------
 Charge =  0 Multiplicity = 1

                         Standard orientation:
 ---------------------------------------------------------------------
 Center     Atomic      Atomic             Coordinates (Angstroms)
 Number     Number       Type             X           Y           Z
 ---------------------------------------------------------------------
      1          6           0        4.257396   -0.368797   -0.020587
      2          6           0        3.007922    0.506562   -0.012035
      3          7           0        1.798675   -0.310380   -0.052914
      4          6           0        0.578517    0.473657    0.023800
      5          7           0       -0.586857   -0.383706   -0.138908
      6          6           0       -1.835295    0.332647    0.060559
      7          7           0       -2.969736   -0.528509   -0.230068
      8          6           0       -4.245462    0.117510    0.044397
      9          1           0        5.162627    0.245337   -0.032439
     10          1           0        4.263820   -1.020865   -0.898472
     11          1           0        4.300482   -1.003873    0.872247
     12          1           0        3.003497    1.151653   -0.900266
     13          1           0        3.037258    1.185769    0.861986
     14          1           0        1.824341   -0.964415    0.726100
     15          1           0        0.587693    1.194025   -0.805676
     16          1           0        0.527840    1.079406    0.961189
     17          1           0       -0.529173   -1.142894    0.536581
     18          1           0       -1.858783    1.173806   -0.646789
     19          1           0       -1.905930    0.785724    1.080021
     20          1           0       -2.895919   -1.375632    0.325618
     21          1           0       -4.386779    0.954795   -0.649015
     22          1           0       -4.344758    0.518879    1.070121
     23          1           0       -5.059263   -0.593018   -0.124776
 ---------------------------------------------------------------------

 SCF Done:  E(RB3LYP) =  -363.812170738     A.U. after    1 cycles

 The electronic state is 1-A.
 Alpha  occ. eigenvalues --  -14.30991 -14.30970 -14.30921 -10.22535 -10.22452
 Alpha  occ. eigenvalues --  -10.20393 -10.19757 -10.17372  -0.93468  -0.90048
 Alpha  occ. eigenvalues --   -0.85338  -0.73894  -0.68146  -0.62920  -0.62005
 Alpha  occ. eigenvalues --   -0.60198  -0.49082  -0.48568  -0.48023  -0.45484
 Alpha  occ. eigenvalues --   -0.44460  -0.42590  -0.42057  -0.38790  -0.38129
 Alpha  occ. eigenvalues --   -0.37537  -0.36110  -0.35734  -0.34509  -0.34443
 Alpha  occ. eigenvalues --   -0.23179  -0.21660  -0.21444
 Alpha virt. eigenvalues --    0.07582   0.08823   0.10096   0.10692   0.13037
 Alpha virt. eigenvalues --    0.13603   0.15441   0.15839   0.16587   0.17381
 Alpha virt. eigenvalues --    0.17634   0.18132   0.19088   0.19774   0.20441

 Mulliken charges:
               1
     1  C   -0.389576
     2  C   -0.097585
     3  N   -0.297481
     4  C   -0.058847
     5  N   -0.307342
     6  C   -0.057031
     7  N   -0.281070
     8  C   -0.311317
     9  H    0.114869
    10  H    0.130217
    11  H    0.109284
    12  H    0.105821
    13  H    0.074324
    14  H    0.203213
    15  H    0.108757
    16  H    0.053327
    17  H    0.200010
    18  H    0.107377
    19  H    0.051655
    20  H    0.208802
    21  H    0.123366
    22  H    0.090545
    23  H    0.118684
 Sum of Mulliken charges =   0.00000

 Dipole moment (field-independent basis, Debye):
    X=              0.1726    Y=              0.3675    Z=              2.4513  Tot=              2.4847
 Quadrupole moment (field-independent basis, Debye-Ang):
   XX=            -48.2277   YY=            -50.6444   ZZ=            -53.6560
   XY=              0.7777   XZ=             -1.6099   YZ=             -4.8307

  Exact polarizability: 106.651  -0.114  72.332  -0.521  -1.514  65.717
 Approx polarizability: 112.888   0.723 108.569  -0.291  -2.415  99.937

                      1                      2                      3
                      A                      A                      A
 Frequencies --     20.5504                44.0798                74.5212
 Red. masses --      1.6953                 3.4187                 2.1034
 Frc consts  --      0.0004                 0.0039                 0.0069
 IR Inten    --      2.1905                 0.3116                 0.1508

                      4                      5                      6
                      A                      A                      A
 Frequencies --     81.9049               108.2901               138.1327
 Red. masses --      3.1827                 2.9637                 2.0870
 Frc consts  --      0.0126                 0.0205                 0.0235
 IR Inten    --      0.1536                 0.8108                 0.6774

                      7                      8                      9
                      A                      A                      A
 Frequencies --    215.4014               244.8257               254.1628
 Red. masses --      3.0419                 1.1214                 1.1176
 Frc consts  --      0.0832                 0.0396                 0.0425
 IR Inten    --      0.1058                 1.2230                 0.6725

                     10                     11                     12
                      A                      A                      A
 Frequencies --    304.4290               356.6779               492.0714
 Red. masses --      4.3602                 2.9914                 3.1007
 Frc consts  --      0.2381                 0.2242                 0.4424
 IR Inten    --      0.5466                 1.1435                 1.7580

                     13                     14                     15
                      A                      A                      A
 Frequencies --    546.9725               758.4409               766.5126
 Red. masses --      3.6669                 1.2338                 1.2736
 Frc consts  --      0.6464                 0.4182                 0.4409
 IR Inten    --      0.1394                 5.3213                 9.4153

                     16                     17                     18
                      A                      A                      A
 Frequencies --    797.8178               818.2555               923.1952
 Red. masses --      1.1847                 1.1260                 1.6404
 Frc consts  --      0.4443                 0.4442                 0.8237
 IR Inten    --    218.4127                 4.4001                 1.9480

                     19                     20                     21
                      A                      A                      A
 Frequencies --    987.3836              1031.9957              1046.9789
 Red. masses --      2.1342                 1.3779                 2.9613
 Frc consts  --      1.2259                 0.8646                 1.9125
 IR Inten    --      3.3440                 0.8963                 5.8780

                     22                     23                     24
                      A                      A                      A
 Frequencies --   1061.9786              1084.7136              1133.8845
 Red. masses --      2.6675                 1.4765                 2.4225
 Frc consts  --      1.7725                 1.0236                 1.8351
 IR Inten    --     15.9664                 8.6483                 4.2366

                     25                     26                     27
                      A                      A                      A
 Frequencies --   1143.1445              1151.2705              1158.9313
 Red. masses --      1.9641                 1.5649                 2.8649
 Frc consts  --      1.5122                 1.2221                 2.2671
 IR Inten    --      9.9443                96.0168                13.5423

                     28                     29                     30
                      A                      A                      A
 Frequencies --   1162.4838              1187.9106              1257.8919
 Red. masses --      3.0489                 2.0788                 1.6020
 Frc consts  --      2.4276                 1.7284                 1.4935
 IR Inten    --    145.2372                10.7537                 2.4868

                     31                     32                     33
                      A                      A                      A
 Frequencies --   1272.0284              1296.1600              1313.6887
 Red. masses --      1.5462                 1.2225                 1.1661
 Frc consts  --      1.4741                 1.2101                 1.1857
 IR Inten    --     15.5951                 1.2633                 2.1273

                     34                     35                     36
                      A                      A                      A
 Frequencies --   1361.8152              1395.1877              1411.5011
 Red. masses --      1.2207                 1.2574                 1.2933
 Frc consts  --      1.3338                 1.4420                 1.5182
 IR Inten    --     63.4883                 5.8521                 2.2704

                     37                     38                     39
                      A                      A                      A
 Frequencies --   1441.5498              1459.1733              1472.6790
 Red. masses --      1.3033                 1.2022                 1.2218
 Frc consts  --      1.5957                 1.5082                 1.5612
 IR Inten    --      7.8017                25.4631               101.4489

                     40                     41                     42
                      A                      A                      A
 Frequencies --   1484.7584              1490.8483              1498.0124
 Red. masses --      1.0905                 1.0817                 1.0532
 Frc consts  --      1.4164                 1.4165                 1.3924
 IR Inten    --      0.6323                16.0294                 4.3973

                     43                     44                     45
                      A                      A                      A
 Frequencies --   1501.7653              1513.1127              1518.8148
 Red. masses --      1.1575                 1.1316                 1.0800
 Frc consts  --      1.5380                 1.5264                 1.4678
 IR Inten    --      6.0035                 3.1455                 4.0142

                     46                     47                     48
                      A                      A                      A
 Frequencies --   1521.4491              1536.9695              1543.7550
 Red. masses --      1.1018                 1.1421                 1.1029
 Frc consts  --      1.5027                 1.5896                 1.5487
 IR Inten    --      1.3691                 0.3548                 0.3071

                     49                     50                     51
                      A                      A                      A
 Frequencies --   2782.9552              2796.6525              2912.1269
 Red. masses --      1.0728                 1.0731                 1.0737
 Frc consts  --      4.8955                 4.9450                 5.3647
 IR Inten    --     13.2636               231.1883                88.2865

                     52                     53                     54
                      A                      A                      A
 Frequencies --   2932.7971              3013.3152              3021.0482
 Red. masses --      1.0607                 1.0832                 1.0831
 Frc consts  --      5.3751                 5.7952                 5.8243
 IR Inten    --     98.9664                10.6895                38.2552

                     55                     56                     57
                      A                      A                      A
 Frequencies --   3029.6509              3035.2692              3052.6419
 Red. masses --      1.0605                 1.0610                 1.0734
 Frc consts  --      5.7354                 5.7593                 5.8935
 IR Inten    --     14.3576                47.0360                41.0208

                     58                     59                     60
                      A                      A                      A
 Frequencies --   3098.1985              3105.7070              3120.3895
 Red. masses --      1.0979                 1.0998                 1.1023
 Frc consts  --      6.2094                 6.2503                 6.3239
 IR Inten    --     38.7768                28.7770                25.4014

                     61                     62                     63
                      A                      A                      A
 Frequencies --   3474.9448              3479.0322              3503.1280
 Red. masses --      1.0729                 1.0729                 1.0735
 Frc consts  --      7.6334                 7.6514                 7.7619
 IR Inten    --      1.7337                 1.8810                 0.7896

 - Thermochemistry -
 -------------------
 Temperature   298.150 Kelvin.  Pressure   1.00000 Atm.
 Atom     1 has atomic number  6 and mass  12.00000

 Molecular mass:   117.12660 amu.
 Principal axes and moments of inertia in atomic units:
                           1         2         3
     Eigenvalues --   147.505423344.405033421.72922
           X            0.99999  -0.00386  -0.00212
           Y            0.00370   0.99756  -0.06966
           Z            0.00238   0.06965   0.99757
 This molecule is an asymmetric top.
 Rotational symmetry number  1.
 Rotational temperatures (Kelvin)      0.58719     0.02590     0.02531
 Rotational constants (GHZ):          12.23508     0.53963     0.52744
 Zero-point vibrational energy     554743.9 (Joules/Mol)
                                  132.58697 (Kcal/Mol)
 Warning -- explicit consideration of  13 degrees of freedom as
           vibrations may cause significant error
 Vibrational temperatures:     29.57    63.42   107.22   117.84   155.81
          (Kelvin)            198.74   309.91   352.25   365.68   438.01
                              513.18   707.98   786.97  1091.23  1102.84
                             1147.88  1177.29  1328.27  1420.62  1484.81
                             1506.37  1527.95  1560.66  1631.41  1644.73
                             1656.42  1667.44  1672.55  1709.14  1809.83
                             1830.17  1864.89  1890.11  1959.35  2007.36
                             2030.84  2074.07  2099.42  2118.86  2136.24
                             2145.00  2155.31  2160.71  2177.03  2185.24
                             2189.03  2211.36  2221.12  4004.05  4023.76
                             4189.90  4219.64  4335.49  4346.61  4358.99
                             4367.08  4392.07  4457.62  4468.42  4489.54
                             4999.67  5005.55  5040.22

 Zero-point correction=                           0.211291 (Hartree/Particle)
 Thermal correction to Energy=                    0.222298
 Thermal correction to Enthalpy=                  0.223242
 Thermal correction to Gibbs Free Energy=         0.172879
 Sum of electronic and zero-point Energies=           -363.600880
 Sum of electronic and thermal Energies=              -363.589873
 Sum of electronic and thermal Enthalpies=            -363.588929
 Sum of electronic and thermal Free Energies=         -363.639292

                     E (Thermal)             CV                S
                      KCal/Mol        Cal/Mol-Kelvin    Cal/Mol-Kelvin
 Total                  139.494             36.820            105.999
 Electronic               0.000              0.000              0.000
 Translational            0.889              2.981             40.189
 Rotational               0.889              2.981             28.914
 Vibrational            137.717             30.858             36.896
 Vibration     1          0.593              1.986              6.580
 Vibration     2          0.595              1.980              5.067
 Vibration     3          0.599              1.966              4.030
 Vibration     4          0.600              1.962              3.845
 Vibration     5          0.606              1.943              3.299
 Vibration     6          0.614              1.915              2.830
 Vibration     7          0.645              1.818              1.997
 Vibration     8          0.660              1.771              1.768
 Vibration     9          0.665              1.756              1.702
 Vibration    10          0.695              1.665              1.392
 Vibration    11          0.732              1.562              1.137
 Vibration    12          0.848              1.268              0.678
 Vibration    13          0.902              1.146              0.550

 Optimization completed.
    -- Stationary point found.
 Normal termination of Gaussian 16 at Tue Jun  1 15:14:17 2021.
