 Gaussian 16, Revision A.03,
 Gaussian 16:  ES64L-G16RevA.03 25-Dec-2016

 -----------------------------
 # opt freq b3lyp/6-31g(2df,p)
 -----------------------------

 -------------------
 Title Card Required
 -------------------
 Symbolic Z-matrix:
 Charge =  0 Multiplicity = 1

 SCF Done:  E(RB3LYP) =  -532.413770464     A.U. after   13 cycles
 SCF Done:  E(RB3LYP) =  -532.422098941     A.U. after   14 cycles
 SCF Done:  E(RB3LYP) =  -532.426226023     A.U. after   12 cycles
 SCF Done:  E(RB3LYP) =  -532.428015037     A.U. after   13 cycles
 SCF Done:  E(RB3LYP) =  -532.427611839     A.U. after   13 cycles
 SCF Done:  E(RB3LYP) =  -532.429260528     A.U. after   13 cycles
 SCF Done:  E(RB3LYP) =  -532.430126505     A.U. after   12 cycles
 SCF Done:  E(RB3LYP) =  -532.429916672     A.U. after   11 cycles
 SCF Done:  E(RB3LYP) =  -532.430825246     A.U. after   12 cycles
 SCF Done:  E(RB3LYP) =  -532.431373774     A.U. after   12 cycles
 SCF Done:  E(RB3LYP) =  -532.434136862     A.U. after    9 cycles
 SCF Done:  E(RB3LYP) =  -532.434149229     A.U. after   10 cycles
 SCF Done:  E(RB3LYP) =  -532.434113069     A.U. after   11 cycles
 SCF Done:  E(RB3LYP) =  -532.434159608     A.U. after   11 cycles
 SCF Done:  E(RB3LYP) =  -532.434146238     A.U. after   10 cycles
 SCF Done:  E(RB3LYP) =  -532.434163468     A.U. after   10 cycles
 SCF Done:  E(RB3LYP) =  -532.434163618     A.U. after    9 cycles
 SCF Done:  E(RB3LYP) =  -532.434163744     A.U. after    9 cycles
 SCF Done:  E(RB3LYP) =  -532.434164511     A.U. after    8 cycles
 Optimization completed.
    -- Stationary point found.
 Normal termination of Gaussian 16 at Tue Jun  1 03:04:39 2021.

 ----------------------------------------------------------------------
 #N Geom=AllCheck Guess=TCheck SCRF=Check GenChk RB3LYP/6-31G(2df,p) Fr
 eq
 ----------------------------------------------------------------------

 Structure from the checkpoint file:  "CCNCNpCCdOpNpCpN.chk"
 -------------------
 Title Card Required
 -------------------
 Charge =  0 Multiplicity = 1

                         Standard orientation:
 ---------------------------------------------------------------------
 Center     Atomic      Atomic             Coordinates (Angstroms)
 Number     Number       Type             X           Y           Z
 ---------------------------------------------------------------------
      1          6           0        3.377417   -1.197051    0.650849
      2          6           0        1.899491   -1.490545    0.416951
      3          7           0        1.357452   -0.644177   -0.643753
      4          6           0       -0.054108   -0.820460   -0.916645
      5          7           0       -0.804671    0.055307   -0.004449
      6          6           0       -0.463759    1.447272   -0.298711
      7          6           0        0.911516    1.838397    0.215011
      8          8           0        1.603955    2.677994   -0.302240
      9          7           0       -2.278932   -0.071893   -0.112423
     10          6           0       -2.706598   -1.455496   -0.312833
     11          7           0       -2.853787    0.349910    1.118987
     12          1           0        3.770098   -1.818722    1.460634
     13          1           0        3.530396   -0.145874    0.910410
     14          1           0        3.968826   -1.410440   -0.247194
     15          1           0        1.322487   -1.283416    1.324731
     16          1           0        1.759984   -2.564318    0.194838
     17          1           0        1.904145   -0.724458   -1.491928
     18          1           0       -0.371111   -1.856103   -0.754588
     19          1           0       -0.241557   -0.562468   -1.973932
     20          1           0       -1.170187    2.088174    0.242948
     21          1           0       -0.542473    1.703062   -1.366390
     22          1           0        1.179401    1.362302    1.182322
     23          1           0       -2.431266   -1.803845   -1.310200
     24          1           0       -3.793180   -1.453855   -0.232735
     25          1           0       -2.304191   -2.151912    0.442658
     26          1           0       -2.905952    1.363460    1.114871
     27          1           0       -2.231238    0.077730    1.885201
 ---------------------------------------------------------------------

 SCF Done:  E(RB3LYP) =  -532.434164511     A.U. after    1 cycles

 The electronic state is 1-A.
 Alpha  occ. eigenvalues --  -19.11723 -14.37661 -14.35306 -14.33815 -14.33082
 Alpha  occ. eigenvalues --  -10.25654 -10.24156 -10.21393 -10.20808 -10.20436
 Alpha  occ. eigenvalues --  -10.18083  -1.02727  -1.00724  -0.93072  -0.87166
 Alpha  occ. eigenvalues --   -0.78261  -0.75434  -0.70752  -0.66786  -0.62129
 Alpha  occ. eigenvalues --   -0.59175  -0.56712  -0.52929  -0.50418  -0.49339
 Alpha  occ. eigenvalues --   -0.48742  -0.46284  -0.45388  -0.44188  -0.42998
 Alpha  occ. eigenvalues --   -0.41628  -0.41017  -0.39844  -0.38915  -0.38200
 Alpha  occ. eigenvalues --   -0.37204  -0.36587  -0.35615  -0.34231  -0.29422
 Alpha  occ. eigenvalues --   -0.26399  -0.23908  -0.23513  -0.20347
 Alpha virt. eigenvalues --    0.00282   0.07268   0.07798   0.08977   0.10669
 Alpha virt. eigenvalues --    0.11726   0.12636   0.13628   0.14163   0.14894
 Alpha virt. eigenvalues --    0.15107   0.15412   0.16970   0.17473   0.18021

 Mulliken charges:
               1
     1  C   -0.396699
     2  C   -0.111952
     3  N   -0.265202
     4  C   -0.129419
     5  N   -0.093059
     6  C   -0.187774
     7  C    0.168455
     8  O   -0.273127
     9  N   -0.081309
    10  C   -0.285843
    11  N   -0.435117
    12  H    0.118948
    13  H    0.141326
    14  H    0.114519
    15  H    0.115711
    16  H    0.081926
    17  H    0.227659
    18  H    0.098343
    19  H    0.092198
    20  H    0.105892
    21  H    0.108258
    22  H    0.068964
    23  H    0.122759
    24  H    0.140614
    25  H    0.100085
    26  H    0.242775
    27  H    0.211070
 Sum of Mulliken charges =  -0.00000

 Dipole moment (field-independent basis, Debye):
    X=             -0.2976    Y=             -3.0795    Z=              0.2101  Tot=              3.1009
 Quadrupole moment (field-independent basis, Debye-Ang):
   XX=            -73.5784   YY=            -72.2683   ZZ=            -64.5993
   XY=             -8.3043   XZ=              0.0726   YZ=              4.6467

  Exact polarizability: 115.468   2.585 104.214  -2.115   0.068  88.278
 Approx polarizability: 146.764   6.499 150.181  -7.634  -3.249 138.091

                      1                      2                      3
                      A                      A                      A
 Frequencies --     24.8994                57.3197                71.0739
 Red. masses --      3.3168                 3.3191                 2.6874
 Frc consts  --      0.0012                 0.0064                 0.0080
 IR Inten    --      0.2577                 0.2285                 0.6371

                      4                      5                      6
                      A                      A                      A
 Frequencies --     78.5068               109.0419               143.4695
 Red. masses --      4.0298                 1.9555                 3.7046
 Frc consts  --      0.0146                 0.0137                 0.0449
 IR Inten    --      2.3099                 0.3082                 2.3206

                      7                      8                      9
                      A                      A                      A
 Frequencies --    241.4858               247.8950               271.0477
 Red. masses --      1.8040                 1.9231                 2.3723
 Frc consts  --      0.0620                 0.0696                 0.1027
 IR Inten    --      4.7122                 1.3555                 7.6388

                     10                     11                     12
                      A                      A                      A
 Frequencies --    288.4970               321.3453               327.2420
 Red. masses --      2.4940                 1.4083                 2.7439
 Frc consts  --      0.1223                 0.0857                 0.1731
 IR Inten    --     16.7749                11.2837                 4.3926

                     13                     14                     15
                      A                      A                      A
 Frequencies --    345.1458               376.2000               391.0919
 Red. masses --      1.2275                 2.5735                 2.3460
 Frc consts  --      0.0862                 0.2146                 0.2114
 IR Inten    --      5.3452                 8.9515                13.9441

                     16                     17                     18
                      A                      A                      A
 Frequencies --    433.2399               495.4305               521.5525
 Red. masses --      2.2840                 2.4849                 2.6205
 Frc consts  --      0.2526                 0.3594                 0.4200
 IR Inten    --      5.4834                 1.1630                 4.3869

                     19                     20                     21
                      A                      A                      A
 Frequencies --    543.4180               583.6681               690.8144
 Red. masses --      2.9949                 2.9995                 1.4859
 Frc consts  --      0.5211                 0.6021                 0.4178
 IR Inten    --      6.2723                11.4436                65.7700

                     22                     23                     24
                      A                      A                      A
 Frequencies --    781.5109               815.2583               852.2664
 Red. masses --      1.5214                 1.2110                 3.6840
 Frc consts  --      0.5475                 0.4742                 1.5766
 IR Inten    --      3.5616                 5.7473                31.2723

                     25                     26                     27
                      A                      A                      A
 Frequencies --    877.8626               887.9559               948.4485
 Red. masses --      2.0964                 2.4149                 2.6330
 Frc consts  --      0.9519                 1.1218                 1.3955
 IR Inten    --     21.6457                86.0357                65.2896

                     28                     29                     30
                      A                      A                      A
 Frequencies --   1014.2849              1024.7798              1051.6155
 Red. masses --      2.2650                 1.8074                 2.2148
 Frc consts  --      1.3729                 1.1183                 1.4431
 IR Inten    --     36.0338                 5.4666                 6.2617

                     31                     32                     33
                      A                      A                      A
 Frequencies --   1072.7992              1104.0124              1125.2307
 Red. masses --      3.0237                 1.9836                 1.8721
 Frc consts  --      2.0503                 1.4245                 1.3965
 IR Inten    --     12.7954                 1.6829                10.3043

                     34                     35                     36
                      A                      A                      A
 Frequencies --   1143.3618              1163.1587              1176.0186
 Red. masses --      1.6273                 2.6473                 2.1687
 Frc consts  --      1.2534                 2.1102                 1.7671
 IR Inten    --     14.4374                37.7855                41.8330

                     37                     38                     39
                      A                      A                      A
 Frequencies --   1184.1914              1191.5453              1250.4505
 Red. masses --      1.8739                 1.8422                 1.5455
 Frc consts  --      1.5482                 1.5411                 1.4238
 IR Inten    --     10.5343                33.8284                12.0224

                     40                     41                     42
                      A                      A                      A
 Frequencies --   1264.6638              1294.0223              1326.2888
 Red. masses --      2.2437                 1.2160                 1.1842
 Frc consts  --      2.1143                 1.1997                 1.2273
 IR Inten    --     12.2432                14.5338                 1.4813

                     43                     44                     45
                      A                      A                      A
 Frequencies --   1329.5608              1341.5923              1384.5143
 Red. masses --      1.4570                 1.2636                 1.2810
 Frc consts  --      1.5175                 1.3400                 1.4468
 IR Inten    --      0.9250                 9.3795                11.8318

                     46                     47                     48
                      A                      A                      A
 Frequencies --   1406.4990              1416.3008              1424.2752
 Red. masses --      1.2217                 1.2958                 1.2779
 Frc consts  --      1.4240                 1.5315                 1.5274
 IR Inten    --      8.8024                13.6982                 7.3325

                     49                     50                     51
                      A                      A                      A
 Frequencies --   1444.7327              1458.9460              1480.9533
 Red. masses --      1.1772                 1.1128                 1.1381
 Frc consts  --      1.4477                 1.3955                 1.4707
 IR Inten    --      0.4153                14.5596                 5.2412

                     52                     53                     54
                      A                      A                      A
 Frequencies --   1489.2153              1497.7272              1500.6703
 Red. masses --      1.0558                 1.0486                 1.0505
 Frc consts  --      1.3796                 1.3859                 1.3939
 IR Inten    --     16.5126                 2.0059                 5.7249

                     55                     56                     57
                      A                      A                      A
 Frequencies --   1501.7467              1515.7043              1524.6315
 Red. masses --      1.1217                 1.0916                 1.0901
 Frc consts  --      1.4904                 1.4776                 1.4930
 IR Inten    --      4.1394                 2.8043                 1.7057

                     58                     59                     60
                      A                      A                      A
 Frequencies --   1671.5263              1821.8463              2897.0440
 Red. masses --      1.0800                10.0606                 1.0839
 Frc consts  --      1.7778                19.6743                 5.3600
 IR Inten    --     14.2229               207.1830                97.0412

                     61                     62                     63
                      A                      A                      A
 Frequencies --   2934.9643              2943.6228              2960.3770
 Red. masses --      1.0735                 1.0681                 1.0578
 Frc consts  --      5.4480                 5.4528                 5.4617
 IR Inten    --     72.4524                68.4739                58.4425

                     64                     65                     66
                      A                      A                      A
 Frequencies --   2992.2629              3034.5049              3051.5349
 Red. masses --      1.0641                 1.0388                 1.0909
 Frc consts  --      5.6134                 5.6360                 5.9853
 IR Inten    --     38.1185                19.9234                39.2756

                     67                     68                     69
                      A                      A                      A
 Frequencies --   3057.0380              3062.5051              3101.3330
 Red. masses --      1.0943                 1.0856                 1.0770
 Frc consts  --      6.0257                 5.9990                 6.1032
 IR Inten    --     11.6157                14.6002                23.0706

                     70                     71                     72
                      A                      A                      A
 Frequencies --   3102.1338              3122.7571              3152.8985
 Red. masses --      1.0983                 1.1024                 1.1009
 Frc consts  --      6.2269                 6.3337                 6.4480
 IR Inten    --     33.6290                23.0255                13.6035

                     73                     74                     75
                      A                      A                      A
 Frequencies --   3388.6577              3543.2814              3558.4083
 Red. masses --      1.0548                 1.0847                 1.0749
 Frc consts  --      7.1363                 8.0240                 8.0190
 IR Inten    --     12.7351                 1.6383                 2.8823

 - Thermochemistry -
 -------------------
 Temperature   298.150 Kelvin.  Pressure   1.00000 Atm.
 Atom     1 has atomic number  6 and mass  12.00000

 Molecular mass:   160.13241 amu.
 Principal axes and moments of inertia in atomic units:
                           1         2         3
     Eigenvalues --  1322.645232515.716783361.86140
           X            0.99944  -0.03230   0.00893
           Y            0.03223   0.99945   0.00826
           Z           -0.00919  -0.00797   0.99993
 This molecule is an asymmetric top.
 Rotational symmetry number  1.
 Warning -- assumption of classical behavior for rotation
           may cause significant error
 Rotational temperatures (Kelvin)      0.06549     0.03443     0.02576
 Rotational constants (GHZ):           1.36449     0.71739     0.53683
 Zero-point vibrational energy     623409.2 (Joules/Mol)
                                  148.99837 (Kcal/Mol)
 Warning -- explicit consideration of  20 degrees of freedom as
           vibrations may cause significant error
 Vibrational temperatures:     35.82    82.47   102.26   112.95   156.89
          (Kelvin)            206.42   347.44   356.67   389.98   415.08
                              462.34   470.83   496.59   541.27   562.69
                              623.34   712.81   750.40   781.86   839.77
                              993.93  1124.42  1172.97  1226.22  1263.05
                             1277.57  1364.61  1459.33  1474.43  1513.04
                             1543.52  1588.43  1618.96  1645.04  1673.53
                             1692.03  1703.79  1714.37  1799.12  1819.57
                             1861.81  1908.23  1912.94  1930.25  1992.01
                             2023.64  2037.74  2049.21  2078.65  2099.10
                             2130.76  2142.65  2154.90  2159.13  2160.68
                             2180.76  2193.60  2404.95  2621.23  4168.20
                             4222.76  4235.22  4259.32  4305.20  4365.98
                             4390.48  4398.40  4406.26  4462.13  4463.28
                             4492.95  4536.32  4875.52  5097.99  5119.76

 Zero-point correction=                           0.237444 (Hartree/Particle)
 Thermal correction to Energy=                    0.250595
 Thermal correction to Enthalpy=                  0.251539
 Thermal correction to Gibbs Free Energy=         0.197050
 Sum of electronic and zero-point Energies=           -532.196720
 Sum of electronic and thermal Energies=              -532.183569
 Sum of electronic and thermal Enthalpies=            -532.182625
 Sum of electronic and thermal Free Energies=         -532.237114

                     E (Thermal)             CV                S
                      KCal/Mol        Cal/Mol-Kelvin    Cal/Mol-Kelvin
 Total                  157.251             47.874            114.682
 Electronic               0.000              0.000              0.000
 Translational            0.889              2.981             41.121
 Rotational               0.889              2.981             30.793
 Vibrational            155.473             41.912             42.768
 Vibration     1          0.593              1.985              6.199
 Vibration     2          0.596              1.975              4.547
 Vibration     3          0.598              1.968              4.123
 Vibration     4          0.600              1.964              3.928
 Vibration     5          0.606              1.942              3.286
 Vibration     6          0.616              1.910              2.757
 Vibration     7          0.658              1.777              1.792
 Vibration     8          0.662              1.766              1.745
 Vibration     9          0.675              1.727              1.590
 Vibration    10          0.685              1.695              1.483
 Vibration    11          0.707              1.633              1.303
 Vibration    12          0.711              1.621              1.274
 Vibration    13          0.724              1.585              1.188
 Vibration    14          0.747              1.521              1.054
 Vibration    15          0.759              1.489              0.996
 Vibration    16          0.794              1.398              0.848
 Vibration    17          0.851              1.260              0.670
 Vibration    18          0.877              1.202              0.606
 Vibration    19          0.899              1.154              0.558
 Vibration    20          0.941              1.067              0.479

 Optimization completed.
    -- Stationary point found.
 Normal termination of Gaussian 16 at Tue Jun  1 04:04:46 2021.
