 Gaussian 16, Revision A.03,
 Gaussian 16:  ES64L-G16RevA.03 25-Dec-2016

 -----------------------------
 # opt freq b3lyp/6-31g(2df,p)
 -----------------------------

 -------------------
 Title Card Required
 -------------------
 Symbolic Z-matrix:
 Charge =  0 Multiplicity = 1

 SCF Done:  E(RB3LYP) =  -440.007424322     A.U. after   14 cycles
 SCF Done:  E(RB3LYP) =  -440.032538572     A.U. after   12 cycles
 SCF Done:  E(RB3LYP) =  -440.033389421     A.U. after   11 cycles
 SCF Done:  E(RB3LYP) =  -440.033558960     A.U. after   10 cycles
 SCF Done:  E(RB3LYP) =  -440.033589531     A.U. after   10 cycles
 SCF Done:  E(RB3LYP) =  -440.033596163     A.U. after    8 cycles
 SCF Done:  E(RB3LYP) =  -440.033597489     A.U. after    7 cycles
 SCF Done:  E(RB3LYP) =  -440.033597621     A.U. after    7 cycles
 Optimization completed.
    -- Stationary point found.
 Normal termination of Gaussian 16 at Tue Jun  1 18:17:27 2021.

 ----------------------------------------------------------------------
 #N Geom=AllCheck Guess=TCheck SCRF=Check GenChk RB3LYP/6-31G(2df,p) Fr
 eq
 ----------------------------------------------------------------------

 Structure from the checkpoint file:  "CCNCCpCtNpNCC.chk"
 -------------------
 Title Card Required
 -------------------
 Charge =  0 Multiplicity = 1

                         Standard orientation:
 ---------------------------------------------------------------------
 Center     Atomic      Atomic             Coordinates (Angstroms)
 Number     Number       Type             X           Y           Z
 ---------------------------------------------------------------------
      1          6           0        4.387881   -0.132531    0.289241
      2          6           0        3.128581   -0.789634   -0.266998
      3          7           0        1.929879   -0.101287    0.206216
      4          6           0        0.697239   -0.648286   -0.330090
      5          6           0       -0.534574    0.047156    0.284840
      6          6           0       -0.504266    1.485030   -0.045126
      7          7           0       -0.442138    2.611732   -0.295319
      8          7           0       -1.761284   -0.550657   -0.230712
      9          6           0       -2.983158   -0.106209    0.442568
     10          6           0       -4.200744   -0.829399   -0.122842
     11          1           0        5.282465   -0.670763   -0.037079
     12          1           0        4.365384   -0.119900    1.382571
     13          1           0        4.477990    0.902755   -0.058993
     14          1           0        3.072702   -1.831773    0.074488
     15          1           0        3.185699   -0.828660   -1.371038
     16          1           0        1.994293    0.883801   -0.037479
     17          1           0        0.644883   -1.709355   -0.052543
     18          1           0        0.613058   -0.597757   -1.429531
     19          1           0       -0.439408   -0.019026    1.383969
     20          1           0       -1.678035   -1.559389   -0.144541
     21          1           0       -3.082403    0.972601    0.276225
     22          1           0       -2.933171   -0.251887    1.537514
     23          1           0       -4.283593   -0.660207   -1.199914
     24          1           0       -5.116620   -0.475176    0.358516
     25          1           0       -4.134188   -1.910541    0.046982
 ---------------------------------------------------------------------

 SCF Done:  E(RB3LYP) =  -440.033597621     A.U. after    1 cycles

 The electronic state is 1-A.
 Alpha  occ. eigenvalues --  -14.33342 -14.32835 -14.32084 -10.25703 -10.22509
 Alpha  occ. eigenvalues --  -10.21750 -10.21547 -10.21137 -10.18281 -10.17818
 Alpha  occ. eigenvalues --   -0.93854  -0.90824  -0.89540  -0.78660  -0.74559
 Alpha  occ. eigenvalues --   -0.70756  -0.65113  -0.61745  -0.60967  -0.52420
 Alpha  occ. eigenvalues --   -0.50196  -0.49693  -0.46456  -0.45566  -0.45002
 Alpha  occ. eigenvalues --   -0.43111  -0.40827  -0.39650  -0.38458  -0.37276
 Alpha  occ. eigenvalues --   -0.36543  -0.35875  -0.35496  -0.35311  -0.34893
 Alpha  occ. eigenvalues --   -0.32911  -0.31998  -0.24642  -0.23063
 Alpha virt. eigenvalues --    0.02688   0.03460   0.08527   0.08850   0.10310
 Alpha virt. eigenvalues --    0.10776   0.12169   0.12798   0.14962   0.15135
 Alpha virt. eigenvalues --    0.16140   0.16269   0.16819   0.17115   0.18021

 Mulliken charges:
               1
     1  C   -0.390781
     2  C   -0.100552
     3  N   -0.304489
     4  C   -0.155533
     5  C   -0.107175
     6  C    0.308843
     7  N   -0.342368
     8  N   -0.300266
     9  C   -0.118813
    10  C   -0.391758
    11  H    0.117034
    12  H    0.128349
    13  H    0.119106
    14  H    0.101486
    15  H    0.081808
    16  H    0.229697
    17  H    0.102494
    18  H    0.108140
    19  H    0.112753
    20  H    0.220634
    21  H    0.130848
    22  H    0.082783
    23  H    0.133740
    24  H    0.122130
    25  H    0.111888
 Sum of Mulliken charges =  -0.00000

 Dipole moment (field-independent basis, Debye):
    X=              0.0415    Y=             -3.7455    Z=              0.6548  Tot=              3.8025
 Quadrupole moment (field-independent basis, Debye-Ang):
   XX=            -55.9388   YY=            -70.0651   ZZ=            -64.2514
   XY=              2.2911   XZ=             -3.5716   YZ=              0.9709

  Exact polarizability: 117.147   1.248  95.681  -0.563  -0.606  76.062
 Approx polarizability: 129.088   0.980 151.294  -0.757  -4.333 117.298

                      1                      2                      3
                      A                      A                      A
 Frequencies --     45.5253                72.7191                76.3505
 Red. masses --      2.9566                 1.6878                 2.3898
 Frc consts  --      0.0036                 0.0053                 0.0082
 IR Inten    --      0.7158                 3.6813                 0.1900

                      4                      5                      6
                      A                      A                      A
 Frequencies --     85.2103                94.4021               130.4422
 Red. masses --      3.5004                 2.7749                 3.5315
 Frc consts  --      0.0150                 0.0146                 0.0354
 IR Inten    --      3.0383                 1.5196                 3.5820

                      7                      8                      9
                      A                      A                      A
 Frequencies --    185.5511               206.5290               249.5632
 Red. masses --      2.4750                 3.3258                 1.3187
 Frc consts  --      0.0502                 0.0836                 0.0484
 IR Inten    --      1.8356                 0.8436                 1.3100

                     10                     11                     12
                      A                      A                      A
 Frequencies --    256.3515               269.1379               296.7325
 Red. masses --      1.1659                 2.7733                 4.1685
 Frc consts  --      0.0451                 0.1184                 0.2163
 IR Inten    --      0.0288                 1.4269                 0.1214

                     13                     14                     15
                      A                      A                      A
 Frequencies --    350.0593               439.0119               479.9459
 Red. masses --      3.1820                 4.7952                 3.3498
 Frc consts  --      0.2297                 0.5445                 0.4546
 IR Inten    --      4.2231                 2.2842                 1.9096

                     16                     17                     18
                      A                      A                      A
 Frequencies --    584.4853               627.6642               753.5583
 Red. masses --      3.5757                 3.3397                 1.6071
 Frc consts  --      0.7197                 0.7752                 0.5377
 IR Inten    --      1.3694                13.8580                76.9691

                     19                     20                     21
                      A                      A                      A
 Frequencies --    788.9571               810.6181               821.5197
 Red. masses --      1.2404                 1.4276                 1.2204
 Frc consts  --      0.4549                 0.5527                 0.4853
 IR Inten    --     37.5631                 7.4359                 2.6016

                     22                     23                     24
                      A                      A                      A
 Frequencies --    833.5038               920.1259               929.3219
 Red. masses --      1.6963                 1.8268                 1.5372
 Frc consts  --      0.6943                 0.9112                 0.7822
 IR Inten    --      7.8825                 0.9022                 7.9031

                     25                     26                     27
                      A                      A                      A
 Frequencies --   1025.9412              1041.0065              1050.9109
 Red. masses --      1.9883                 3.0645                 2.6497
 Frc consts  --      1.2331                 1.9567                 1.7241
 IR Inten    --      4.6937                 6.2226                 1.1717

                     28                     29                     30
                      A                      A                      A
 Frequencies --   1074.2819              1132.1151              1144.2024
 Red. masses --      2.2442                 2.3070                 2.2311
 Frc consts  --      1.5260                 1.7421                 1.7210
 IR Inten    --      4.6743                18.8443                 4.0540

                     31                     32                     33
                      A                      A                      A
 Frequencies --   1152.9609              1167.5342              1177.7667
 Red. masses --      1.7417                 3.2317                 1.9235
 Frc consts  --      1.3642                 2.5955                 1.5721
 IR Inten    --      0.8156                64.7433                54.5499

                     34                     35                     36
                      A                      A                      A
 Frequencies --   1199.8212              1255.7077              1290.0851
 Red. masses --      1.8265                 1.4379                 1.2182
 Frc consts  --      1.5492                 1.3358                 1.1945
 IR Inten    --      4.5530                13.1945                16.1286

                     37                     38                     39
                      A                      A                      A
 Frequencies --   1295.9197              1316.7720              1356.2444
 Red. masses --      1.1450                 1.1805                 1.2774
 Frc consts  --      1.1330                 1.2060                 1.3843
 IR Inten    --     13.6222                 4.1226                20.0371

                     40                     41                     42
                      A                      A                      A
 Frequencies --   1373.0905              1390.3104              1403.0767
 Red. masses --      1.3651                 1.2994                 1.2695
 Frc consts  --      1.5164                 1.4798                 1.4725
 IR Inten    --     14.2198                 6.3221                 0.5281

                     43                     44                     45
                      A                      A                      A
 Frequencies --   1415.5870              1421.8246              1482.2891
 Red. masses --      1.3196                 1.4249                 1.1298
 Frc consts  --      1.5580                 1.6971                 1.4626
 IR Inten    --      8.6368                 9.2940                 0.0815

                     46                     47                     48
                      A                      A                      A
 Frequencies --   1487.0525              1497.7011              1498.1343
 Red. masses --      1.0651                 1.0396                 1.0389
 Frc consts  --      1.3877                 1.3740                 1.3738
 IR Inten    --     13.2605                 6.7712                 5.2928

                     49                     50                     51
                      A                      A                      A
 Frequencies --   1501.8958              1509.8406              1514.2702
 Red. masses --      1.1447                 1.0973                 1.1740
 Frc consts  --      1.5213                 1.4738                 1.5861
 IR Inten    --      2.4456                 0.5474                50.9208

                     52                     53                     54
                      A                      A                      A
 Frequencies --   1525.2076              1526.9684              2355.2653
 Red. masses --      1.0951                 1.0928                12.6501
 Frc consts  --      1.5010                 1.5013                41.3451
 IR Inten    --     14.2628                 0.4813                 2.2849

                     55                     56                     57
                      A                      A                      A
 Frequencies --   2925.6295              2931.8727              2936.8725
 Red. masses --      1.0731                 1.0733                 1.0780
 Frc consts  --      5.4116                 5.4357                 5.4782
 IR Inten    --     74.3521                63.8228                10.2604

                     58                     59                     60
                      A                      A                      A
 Frequencies --   2958.2332              3027.5266              3033.3931
 Red. masses --      1.0694                 1.0838                 1.0403
 Frc consts  --      5.5140                 5.8530                 5.6396
 IR Inten    --     80.7541                13.4349                18.3226

                     61                     62                     63
                      A                      A                      A
 Frequencies --   3035.0692              3036.3432              3057.0812
 Red. masses --      1.0897                 1.0406                 1.0847
 Frc consts  --      5.9140                 5.6522                 5.9727
 IR Inten    --     31.3748                33.0499                12.2297

                     64                     65                     66
                      A                      A                      A
 Frequencies --   3102.0582              3102.4086              3120.7220
 Red. masses --      1.0977                 1.0994                 1.1024
 Frc consts  --      6.2233                 6.2344                 6.3254
 IR Inten    --     29.9467                36.2785                25.2108

                     67                     68                     69
                      A                      A                      A
 Frequencies --   3123.9359              3497.6024              3509.7678
 Red. masses --      1.1025                 1.0733                 1.0735
 Frc consts  --      6.3389                 7.7360                 7.7911
 IR Inten    --     22.0768                 0.8906                 0.2765

 - Thermochemistry -
 -------------------
 Temperature   298.150 Kelvin.  Pressure   1.00000 Atm.
 Atom     1 has atomic number  6 and mass  12.00000

 Molecular mass:   141.12660 amu.
 Principal axes and moments of inertia in atomic units:
                           1         2         3
     Eigenvalues --   662.294433479.199133990.77375
           X            0.99997   0.00686  -0.00220
           Y           -0.00682   0.99985   0.01578
           Z            0.00231  -0.01577   0.99987
 This molecule is an asymmetric top.
 Rotational symmetry number  1.
 Warning -- assumption of classical behavior for rotation
           may cause significant error
 Rotational temperatures (Kelvin)      0.13078     0.02489     0.02170
 Rotational constants (GHZ):           2.72498     0.51872     0.45223
 Zero-point vibrational energy     581921.0 (Joules/Mol)
                                  139.08245 (Kcal/Mol)
 Warning -- explicit consideration of  16 degrees of freedom as
           vibrations may cause significant error
 Vibrational temperatures:     65.50   104.63   109.85   122.60   135.82
          (Kelvin)            187.68   266.97   297.15   359.07   368.83
                              387.23   426.93   503.66   631.64   690.54
                              840.94   903.07  1084.20  1135.13  1166.30
                             1181.98  1199.23  1323.86  1337.09  1476.10
                             1497.78  1512.03  1545.65  1628.86  1646.25
                             1658.85  1679.82  1694.54  1726.28  1806.68
                             1856.14  1864.54  1894.54  1951.33  1975.57
                             2000.35  2018.71  2036.71  2045.69  2132.68
                             2139.54  2154.86  2155.48  2160.89  2172.32
                             2178.70  2194.43  2196.97  3388.70  4209.33
                             4218.31  4225.50  4256.24  4355.94  4364.38
                             4366.79  4368.62  4398.46  4463.17  4463.67
                             4490.02  4494.65  5032.27  5049.77

 Zero-point correction=                           0.221642 (Hartree/Particle)
 Thermal correction to Energy=                    0.234112
 Thermal correction to Enthalpy=                  0.235057
 Thermal correction to Gibbs Free Energy=         0.182179
 Sum of electronic and zero-point Energies=           -439.811956
 Sum of electronic and thermal Energies=              -439.799485
 Sum of electronic and thermal Enthalpies=            -439.798541
 Sum of electronic and thermal Free Energies=         -439.851419

                     E (Thermal)             CV                S
                      KCal/Mol        Cal/Mol-Kelvin    Cal/Mol-Kelvin
 Total                  146.908             43.431            111.290
 Electronic               0.000              0.000              0.000
 Translational            0.889              2.981             40.745
 Rotational               0.889              2.981             30.598
 Vibrational            145.130             37.469             39.947
 Vibration     1          0.595              1.979              5.003
 Vibration     2          0.599              1.967              4.078
 Vibration     3          0.599              1.965              3.983
 Vibration     4          0.601              1.959              3.767
 Vibration     5          0.603              1.953              3.567
 Vibration     6          0.612              1.923              2.940
 Vibration     7          0.632              1.860              2.272
 Vibration     8          0.641              1.831              2.074
 Vibration     9          0.662              1.763              1.734
 Vibration    10          0.666              1.752              1.686
 Vibration    11          0.674              1.730              1.602
 Vibration    12          0.690              1.680              1.435
 Vibration    13          0.727              1.575              1.166
 Vibration    14          0.799              1.385              0.830
 Vibration    15          0.836              1.295              0.710
 Vibration    16          0.941              1.065              0.477

                           ! Non-Optimized Parameters !
 Normal termination of Gaussian 16 at Tue Jun  1 18:56:37 2021.
