 Gaussian 16, Revision A.03,
 Gaussian 16:  ES64L-G16RevA.03 25-Dec-2016

 -----------------------------
 # opt freq b3lyp/6-31g(2df,p)
 -----------------------------

 -------------------
 Title Card Required
 -------------------
 Symbolic Z-matrix:
 Charge =  0 Multiplicity = 1

 SCF Done:  E(RB3LYP) =  -401.909960813     A.U. after   13 cycles
 SCF Done:  E(RB3LYP) =  -401.920639773     A.U. after   12 cycles
 SCF Done:  E(RB3LYP) =  -401.923534643     A.U. after   12 cycles
 SCF Done:  E(RB3LYP) =  -401.925913998     A.U. after   12 cycles
 SCF Done:  E(RB3LYP) =  -401.929200085     A.U. after   13 cycles
 SCF Done:  E(RB3LYP) =  -401.931525572     A.U. after   12 cycles
 SCF Done:  E(RB3LYP) =  -401.932833360     A.U. after   11 cycles
 SCF Done:  E(RB3LYP) =  -401.932857130     A.U. after   11 cycles
 SCF Done:  E(RB3LYP) =  -401.933193056     A.U. after   12 cycles
 SCF Done:  E(RB3LYP) =  -401.933258554     A.U. after    9 cycles
 SCF Done:  E(RB3LYP) =  -401.933276330     A.U. after    9 cycles
 SCF Done:  E(RB3LYP) =  -401.933279544     A.U. after    9 cycles
 SCF Done:  E(RB3LYP) =  -401.933280973     A.U. after    7 cycles
 SCF Done:  E(RB3LYP) =  -401.933281203     A.U. after    7 cycles
 Optimization completed.
    -- Stationary point found.
 Normal termination of Gaussian 16 at Tue Jun  1 01:54:14 2021.

 ----------------------------------------------------------------------
 #N Geom=AllCheck Guess=TCheck SCRF=Check GenChk RB3LYP/6-31G(2df,p) Fr
 eq
 ----------------------------------------------------------------------

 Structure from the checkpoint file:  "CCNCpNppCdNpCC.chk"
 -------------------
 Title Card Required
 -------------------
 Charge =  0 Multiplicity = 1

                         Standard orientation:
 ---------------------------------------------------------------------
 Center     Atomic      Atomic             Coordinates (Angstroms)
 Number     Number       Type             X           Y           Z
 ---------------------------------------------------------------------
      1          6           0        3.448017   -0.338841   -0.292584
      2          6           0        2.123533    0.210523    0.231337
      3          7           0        1.006006   -0.599872   -0.244792
      4          6           0       -0.345858   -0.137123    0.096555
      5          7           0       -0.632983    0.120378    1.511547
      6          6           0       -0.582459    1.154316   -0.691829
      7          7           0       -1.190195    2.194782   -0.303900
      8          6           0       -1.323218   -1.220946   -0.423660
      9          6           0       -2.809074   -0.926436   -0.211394
     10          1           0        4.285561    0.279616    0.043636
     11          1           0        3.447776   -0.367318   -1.385643
     12          1           0        3.622283   -1.358507    0.070671
     13          1           0        1.979062    1.234704   -0.133914
     14          1           0        2.174014    0.279677    1.333880
     15          1           0        1.123379   -1.560541    0.064481
     16          1           0        0.082827    0.713507    1.919733
     17          1           0       -0.635475   -0.749434    2.035604
     18          1           0       -0.179484    1.120705   -1.709115
     19          1           0       -1.507559    2.047620    0.662050
     20          1           0       -1.059354   -2.165487    0.075335
     21          1           0       -1.108009   -1.370961   -1.486299
     22          1           0       -3.044383   -0.805010    0.848739
     23          1           0       -3.416404   -1.746551   -0.606287
     24          1           0       -3.109675   -0.007992   -0.723405
 ---------------------------------------------------------------------

 SCF Done:  E(RB3LYP) =  -401.933281203     A.U. after    1 cycles

 The electronic state is 1-A.
 Alpha  occ. eigenvalues --  -14.31999 -14.31605 -14.30501 -10.24616 -10.21498
 Alpha  occ. eigenvalues --  -10.21086 -10.18902 -10.17914 -10.17138  -0.94125
 Alpha  occ. eigenvalues --   -0.88438  -0.85647  -0.77452  -0.73740  -0.66931
 Alpha  occ. eigenvalues --   -0.62530  -0.59892  -0.55872  -0.50897  -0.48787
 Alpha  occ. eigenvalues --   -0.47508  -0.46356  -0.43291  -0.42541  -0.40742
 Alpha  occ. eigenvalues --   -0.39316  -0.39032  -0.36877  -0.35719  -0.35339
 Alpha  occ. eigenvalues --   -0.34538  -0.33925  -0.30230  -0.27546  -0.25174
 Alpha  occ. eigenvalues --   -0.22304
 Alpha virt. eigenvalues --    0.00484   0.06238   0.09675   0.10511   0.12432
 Alpha virt. eigenvalues --    0.13474   0.13948   0.15220   0.15924   0.16458
 Alpha virt. eigenvalues --    0.17127   0.17631   0.18699   0.19310   0.19713

 Mulliken charges:
               1
     1  C   -0.386329
     2  C   -0.125788
     3  N   -0.313225
     4  C    0.192070
     5  N   -0.540623
     6  C    0.071508
     7  N   -0.414932
     8  C   -0.210150
     9  C   -0.387818
    10  H    0.116378
    11  H    0.128735
    12  H    0.110876
    13  H    0.118657
    14  H    0.069843
    15  H    0.202230
    16  H    0.233444
    17  H    0.223490
    18  H    0.112002
    19  H    0.228737
    20  H    0.085317
    21  H    0.116906
    22  H    0.125484
    23  H    0.110169
    24  H    0.133017
 Sum of Mulliken charges =  -0.00000

 Dipole moment (field-independent basis, Debye):
    X=              1.5948    Y=             -2.8050    Z=              1.6801  Tot=              3.6379
 Quadrupole moment (field-independent basis, Debye-Ang):
   XX=            -57.9797   YY=            -61.9183   ZZ=            -55.4623
   XY=              4.0377   XZ=              0.9057   YZ=              0.8554

  Exact polarizability:  98.381  -2.082  85.945  -1.549   1.299  76.697
 Approx polarizability: 120.168  -7.657 131.687  -4.249   3.787 117.037

                      1                      2                      3
                      A                      A                      A
 Frequencies --     71.1319                99.9873               105.2427
 Red. masses --      2.2924                 1.9202                 2.8241
 Frc consts  --      0.0068                 0.0113                 0.0184
 IR Inten    --      0.9156                 0.3962                 1.2224

                      4                      5                      6
                      A                      A                      A
 Frequencies --    135.3083               147.0461               224.1151
 Red. masses --      2.1110                 2.9026                 1.2086
 Frc consts  --      0.0228                 0.0370                 0.0358
 IR Inten    --      0.2308                 0.6530                 0.2166

                      7                      8                      9
                      A                      A                      A
 Frequencies --    253.2329               272.1078               297.9374
 Red. masses --      1.2171                 1.7035                 1.8903
 Frc consts  --      0.0460                 0.0743                 0.0989
 IR Inten    --      0.4239                 5.6132                14.4180

                     10                     11                     12
                      A                      A                      A
 Frequencies --    309.9079               331.0522               343.0741
 Red. masses --      2.1310                 2.0027                 3.0897
 Frc consts  --      0.1206                 0.1293                 0.2143
 IR Inten    --     10.1587                 1.6450                 4.1936

                     13                     14                     15
                      A                      A                      A
 Frequencies --    404.2781               448.5195               543.0088
 Red. masses --      3.3536                 2.5889                 2.5051
 Frc consts  --      0.3229                 0.3069                 0.4352
 IR Inten    --      3.2409                 7.6792                 5.5213

                     16                     17                     18
                      A                      A                      A
 Frequencies --    629.8671               719.4905               764.2716
 Red. masses --      2.7910                 1.3953                 3.6857
 Frc consts  --      0.6524                 0.4256                 1.2684
 IR Inten    --     62.4916                68.1581                23.2415

                     19                     20                     21
                      A                      A                      A
 Frequencies --    782.6798               820.1288               838.4180
 Red. masses --      1.3002                 1.1339                 1.8685
 Frc consts  --      0.4693                 0.4494                 0.7739
 IR Inten    --      6.5602                 2.2394                52.3838

                     22                     23                     24
                      A                      A                      A
 Frequencies --    856.3444               923.2903               958.6364
 Red. masses --      1.5452                 2.1801                 1.5677
 Frc consts  --      0.6676                 1.0950                 0.8488
 IR Inten    --     46.2230                 0.9405                 2.4213

                     25                     26                     27
                      A                      A                      A
 Frequencies --   1012.9872              1035.7253              1059.7848
 Red. masses --      1.8328                 2.9695                 1.5044
 Frc consts  --      1.1081                 1.8768                 0.9955
 IR Inten    --      6.2819                15.7308                 3.5830

                     28                     29                     30
                      A                      A                      A
 Frequencies --   1092.0335              1132.8639              1146.8536
 Red. masses --      2.2122                 2.0888                 2.5806
 Frc consts  --      1.5543                 1.5795                 1.9998
 IR Inten    --      2.2886                62.3432                36.7281

                     31                     32                     33
                      A                      A                      A
 Frequencies --   1181.1484              1188.0165              1204.2821
 Red. masses --      1.2673                 1.4823                 2.0120
 Frc consts  --      1.0417                 1.2326                 1.7192
 IR Inten    --     20.3543                21.3982                92.5204

                     34                     35                     36
                      A                      A                      A
 Frequencies --   1250.1854              1282.7246              1301.5966
 Red. masses --      1.4349                 1.4225                 1.2912
 Frc consts  --      1.3213                 1.3790                 1.2889
 IR Inten    --     43.0198                23.4027                 7.6727

                     37                     38                     39
                      A                      A                      A
 Frequencies --   1341.5110              1356.5072              1389.4597
 Red. masses --      1.4417                 1.4794                 1.3204
 Frc consts  --      1.5286                 1.6039                 1.5019
 IR Inten    --      3.9878                 7.3736                 4.6494

                     40                     41                     42
                      A                      A                      A
 Frequencies --   1412.0106              1413.6247              1417.4712
 Red. masses --      1.3036                 1.2352                 1.2611
 Frc consts  --      1.5313                 1.4543                 1.4929
 IR Inten    --      4.7070                13.9596                12.5429

                     43                     44                     45
                      A                      A                      A
 Frequencies --   1482.1154              1484.8660              1494.9930
 Red. masses --      1.1142                 1.0815                 1.0401
 Frc consts  --      1.4420                 1.4050                 1.3697
 IR Inten    --      7.2476                 5.3973                 5.4986

                     46                     47                     48
                      A                      A                      A
 Frequencies --   1497.6876              1504.1584              1511.2213
 Red. masses --      1.0374                 1.1802                 1.0610
 Frc consts  --      1.3710                 1.5733                 1.4276
 IR Inten    --      4.7201                15.1872                 3.2552

                     49                     50                     51
                      A                      A                      A
 Frequencies --   1523.4718              1647.7390              1732.6501
 Red. masses --      1.0893                 1.1186                 7.8793
 Frc consts  --      1.4895                 1.7895                13.9367
 IR Inten    --      3.9756                27.7898                39.7219

                     52                     53                     54
                      A                      A                      A
 Frequencies --   2921.2598              2997.5086              3032.0760
 Red. masses --      1.0728                 1.0704                 1.0406
 Frc consts  --      5.3941                 5.6665                 5.6366
 IR Inten    --     72.6436                36.7447                19.9971

                     55                     56                     57
                      A                      A                      A
 Frequencies --   3045.3061              3046.5811              3076.2299
 Red. masses --      1.0812                 1.0367                 1.0908
 Frc consts  --      5.9077                 5.6691                 6.0816
 IR Inten    --     18.6017                25.6872                 4.2021

                     58                     59                     60
                      A                      A                      A
 Frequencies --   3085.4721              3099.0441              3112.9574
 Red. masses --      1.0883                 1.0985                 1.1008
 Frc consts  --      6.1046                 6.2158                 6.2853
 IR Inten    --     28.9568                35.3017                23.3811

                     61                     62                     63
                      A                      A                      A
 Frequencies --   3120.9162              3126.6954              3391.4888
 Red. masses --      1.1024                 1.1014                 1.0714
 Frc consts  --      6.3264                 6.3439                 7.2607
 IR Inten    --     23.7448                24.1891                 2.2601

                     64                     65                     66
                      A                      A                      A
 Frequencies --   3496.5935              3500.6317              3579.0952
 Red. masses --      1.0486                 1.0734                 1.0932
 Frc consts  --      7.5534                 7.7500                 8.2507
 IR Inten    --      0.2634                 0.7554                 0.8506

 - Thermochemistry -
 -------------------
 Temperature   298.150 Kelvin.  Pressure   1.00000 Atm.
 Atom     1 has atomic number  6 and mass  12.00000

 Molecular mass:   129.12660 amu.
 Principal axes and moments of inertia in atomic units:
                           1         2         3
     Eigenvalues --   732.196391822.954382103.97633
           X            0.99983   0.01863   0.00006
           Y           -0.01862   0.99950   0.02569
           Z            0.00042  -0.02568   0.99967
 This molecule is an asymmetric top.
 Rotational symmetry number  1.
 Warning -- assumption of classical behavior for rotation
           may cause significant error
 Rotational temperatures (Kelvin)      0.11829     0.04751     0.04117
 Rotational constants (GHZ):           2.46483     0.99001     0.85778
 Zero-point vibrational energy     568277.8 (Joules/Mol)
                                  135.82164 (Kcal/Mol)
 Warning -- explicit consideration of  15 degrees of freedom as
           vibrations may cause significant error
 Vibrational temperatures:    102.34   143.86   151.42   194.68   211.57
          (Kelvin)            322.45   364.35   391.50   428.67   445.89
                              476.31   493.61   581.67   645.32   781.27
                              906.24  1035.19  1099.62  1126.10  1179.98
                             1206.30  1232.09  1328.41  1379.26  1457.46
                             1490.18  1524.79  1571.19  1629.94  1650.07
                             1699.41  1709.29  1732.69  1798.74  1845.55
                             1872.71  1930.14  1951.71  1999.12  2031.57
                             2033.89  2039.42  2132.43  2136.39  2150.96
                             2154.84  2164.15  2174.31  2191.94  2370.73
                             2492.90  4203.04  4312.75  4362.48  4381.52
                             4383.35  4426.01  4439.31  4458.83  4478.85
                             4490.30  4498.62  4879.60  5030.82  5036.63
                             5149.52

 Zero-point correction=                           0.216446 (Hartree/Particle)
 Thermal correction to Energy=                    0.227714
 Thermal correction to Enthalpy=                  0.228659
 Thermal correction to Gibbs Free Energy=         0.180226
 Sum of electronic and zero-point Energies=           -401.716836
 Sum of electronic and thermal Energies=              -401.705567
 Sum of electronic and thermal Enthalpies=            -401.704623
 Sum of electronic and thermal Free Energies=         -401.753055

                     E (Thermal)             CV                S
                      KCal/Mol        Cal/Mol-Kelvin    Cal/Mol-Kelvin
 Total                  142.893             41.445            101.935
 Electronic               0.000              0.000              0.000
 Translational            0.889              2.981             40.480
 Rotational               0.889              2.981             29.420
 Vibrational            141.116             35.483             32.035
 Vibration     1          0.598              1.968              4.122
 Vibration     2          0.604              1.949              3.455
 Vibration     3          0.605              1.945              3.355
 Vibration     4          0.613              1.918              2.869
 Vibration     5          0.617              1.906              2.710
 Vibration     6          0.649              1.804              1.926
 Vibration     7          0.664              1.757              1.708
 Vibration     8          0.675              1.725              1.583
 Vibration     9          0.691              1.678              1.428
 Vibration    10          0.699              1.655              1.363
 Vibration    11          0.713              1.613              1.255
 Vibration    12          0.722              1.589              1.198
 Vibration    13          0.769              1.461              0.947
 Vibration    14          0.808              1.364              0.800
 Vibration    15          0.898              1.155              0.559

                           ! Non-Optimized Parameters !
 Normal termination of Gaussian 16 at Tue Jun  1 02:31:55 2021.
