 Gaussian 16, Revision A.03,
 Gaussian 16:  ES64L-G16RevA.03 25-Dec-2016

 -----------------------------
 # opt freq b3lyp/6-31g(2df,p)
 -----------------------------

 -------------------
 Title Card Required
 -------------------
 Symbolic Z-matrix:
 Charge =  0 Multiplicity = 1

 SCF Done:  E(RB3LYP) =  -419.146938420     A.U. after   12 cycles
 SCF Done:  E(RB3LYP) =  -419.164026238     A.U. after   11 cycles
 SCF Done:  E(RB3LYP) =  -419.170320763     A.U. after   11 cycles
 SCF Done:  E(RB3LYP) =  -419.176351512     A.U. after   11 cycles
 SCF Done:  E(RB3LYP) =  -419.180041824     A.U. after   10 cycles
 SCF Done:  E(RB3LYP) =  -419.186623535     A.U. after   11 cycles
 SCF Done:  E(RB3LYP) =  -419.190285405     A.U. after   11 cycles
 SCF Done:  E(RB3LYP) =  -419.192344364     A.U. after   10 cycles
 SCF Done:  E(RB3LYP) =  -419.193645976     A.U. after   11 cycles
 SCF Done:  E(RB3LYP) =  -419.193939579     A.U. after   10 cycles
 SCF Done:  E(RB3LYP) =  -419.194022509     A.U. after    9 cycles
 SCF Done:  E(RB3LYP) =  -419.194042987     A.U. after    8 cycles
 SCF Done:  E(RB3LYP) =  -419.194050094     A.U. after    7 cycles
 SCF Done:  E(RB3LYP) =  -419.194051130     A.U. after    7 cycles
 SCF Done:  E(RB3LYP) =  -419.194051897     A.U. after    6 cycles
 SCF Done:  E(RB3LYP) =  -419.194052095     A.U. after    6 cycles
 Optimization completed.
    -- Stationary point found.
 Normal termination of Gaussian 16 at Mon May 31 16:15:40 2021.

 ----------------------------------------------------------------------
 #N Geom=AllCheck Guess=TCheck SCRF=Check GenChk RB3LYP/6-31G(2df,p) Fr
 eq
 ----------------------------------------------------------------------

 Structure from the checkpoint file:  "CCNCpNppNpCCN.chk"
 -------------------
 Title Card Required
 -------------------
 Charge =  0 Multiplicity = 1

                         Standard orientation:
 ---------------------------------------------------------------------
 Center     Atomic      Atomic             Coordinates (Angstroms)
 Number     Number       Type             X           Y           Z
 ---------------------------------------------------------------------
      1          6           0        3.633005   -0.907079   -0.062125
      2          6           0        2.508179    0.107466    0.129550
      3          7           0        1.205653   -0.535976   -0.024727
      4          6           0        0.023936    0.337432   -0.014900
      5          7           0       -0.086413    1.320195    1.071031
      6          7           0        0.114056    1.139949   -1.234583
      7          6           0       -1.202241   -0.604246    0.065830
      8          6           0       -2.562834    0.080566   -0.052235
      9          7           0       -3.636568   -0.903482    0.136250
     10          1           0        4.611417   -0.425851    0.033554
     11          1           0        3.567256   -1.374878   -1.048634
     12          1           0        3.581870   -1.703777    0.689791
     13          1           0        2.575846    0.893263   -0.628297
     14          1           0        2.631296    0.602883    1.110077
     15          1           0        1.092484   -1.257671    0.680113
     16          1           0        0.703060    1.956924    1.027532
     17          1           0       -0.055572    0.852464    1.971847
     18          1           0        0.114387    0.525183   -2.041618
     19          1           0       -0.686158    1.759301   -1.297198
     20          1           0       -1.181524   -1.148800    1.019775
     21          1           0       -1.089827   -1.358214   -0.723265
     22          1           0       -2.621777    0.614431   -1.016768
     23          1           0       -2.650573    0.838732    0.731462
     24          1           0       -3.631490   -1.566287   -0.634885
     25          1           0       -4.538049   -0.437347    0.093996
 ---------------------------------------------------------------------

 SCF Done:  E(RB3LYP) =  -419.194052095     A.U. after    1 cycles

 The electronic state is 1-A.
 Alpha  occ. eigenvalues --  -14.30214 -14.30199 -14.30165 -14.30121 -10.25704
 Alpha  occ. eigenvalues --  -10.19596 -10.19406 -10.17064 -10.16845  -0.94132
 Alpha  occ. eigenvalues --   -0.87077  -0.85126  -0.82895  -0.74285  -0.71674
 Alpha  occ. eigenvalues --   -0.62689  -0.58696  -0.56983  -0.51066  -0.49660
 Alpha  occ. eigenvalues --   -0.46611  -0.46072  -0.45530  -0.43406  -0.41326
 Alpha  occ. eigenvalues --   -0.40849  -0.39557  -0.37644  -0.36307  -0.35663
 Alpha  occ. eigenvalues --   -0.33954  -0.33418  -0.33232  -0.26081  -0.24279
 Alpha  occ. eigenvalues --   -0.22601  -0.21070
 Alpha virt. eigenvalues --    0.06887   0.08828   0.10839   0.11500   0.12016
 Alpha virt. eigenvalues --    0.13608   0.14934   0.16454   0.16628   0.17402
 Alpha virt. eigenvalues --    0.17513   0.18225   0.19497   0.19854   0.20257

 Mulliken charges:
               1
     1  C   -0.385190
     2  C   -0.110832
     3  N   -0.301305
     4  C    0.221267
     5  N   -0.516649
     6  N   -0.497510
     7  C   -0.186326
     8  C   -0.154001
     9  N   -0.512673
    10  H    0.110151
    11  H    0.121763
    12  H    0.106142
    13  H    0.121803
    14  H    0.062566
    15  H    0.201416
    16  H    0.230155
    17  H    0.218333
    18  H    0.227224
    19  H    0.231650
    20  H    0.093352
    21  H    0.091718
    22  H    0.064263
    23  H    0.119989
    24  H    0.219399
    25  H    0.223291
 Sum of Mulliken charges =  -0.00000

 Dipole moment (field-independent basis, Debye):
    X=             -0.3168    Y=             -0.1785    Z=             -0.2937  Tot=              0.4674
 Quadrupole moment (field-independent basis, Debye-Ang):
   XX=            -55.0129   YY=            -59.6723   ZZ=            -54.7383
   XY=             -1.0706   XZ=              7.1070   YZ=              1.0371

  Exact polarizability: 105.324  -0.010  78.666   0.817   0.324  75.904
 Approx polarizability: 121.429   0.771 117.328  -0.481  -0.303 115.484

                      1                      2                      3
                      A                      A                      A
 Frequencies --     68.1341                76.4318                93.7366
 Red. masses --      2.1954                 2.6635                 1.9853
 Frc consts  --      0.0060                 0.0092                 0.0103
 IR Inten    --      0.5222                 2.6219                 2.2060

                      4                      5                      6
                      A                      A                      A
 Frequencies --    117.5198               142.7344               231.1536
 Red. masses --      2.8530                 2.3908                 2.0119
 Frc consts  --      0.0232                 0.0287                 0.0633
 IR Inten    --      1.2555                 0.8899                 1.5092

                      7                      8                      9
                      A                      A                      A
 Frequencies --    256.7570               269.0703               303.1317
 Red. masses --      1.1491                 1.4538                 1.1063
 Frc consts  --      0.0446                 0.0620                 0.0599
 IR Inten    --     10.2700                21.9216                34.2744

                     10                     11                     12
                      A                      A                      A
 Frequencies --    311.6917               325.8117               357.0989
 Red. masses --      1.3865                 3.0131                 3.0893
 Frc consts  --      0.0794                 0.1884                 0.2321
 IR Inten    --     10.8110                 7.6884                 2.1716

                     13                     14                     15
                      A                      A                      A
 Frequencies --    365.9556               413.7067               489.7555
 Red. masses --      2.5459                 2.1970                 2.3529
 Frc consts  --      0.2009                 0.2215                 0.3325
 IR Inten    --     14.3057                 9.0802                 3.9834

                     16                     17                     18
                      A                      A                      A
 Frequencies --    511.8579               646.2714               732.6340
 Red. masses --      2.7717                 2.5213                 1.5170
 Frc consts  --      0.4278                 0.6204                 0.4798
 IR Inten    --      2.9752                44.3335                73.0839

                     19                     20                     21
                      A                      A                      A
 Frequencies --    793.7284               809.4423               823.4650
 Red. masses --      1.3102                 1.9968                 1.3502
 Frc consts  --      0.4863                 0.7708                 0.5394
 IR Inten    --     39.8669                12.6338                21.8303

                     22                     23                     24
                      A                      A                      A
 Frequencies --    846.4051               876.0204               902.4538
 Red. masses --      1.7312                 1.3042                 1.4437
 Frc consts  --      0.7307                 0.5897                 0.6928
 IR Inten    --    197.6207                31.6712                73.2533

                     25                     26                     27
                      A                      A                      A
 Frequencies --    906.1346               975.2288              1002.3570
 Red. masses --      1.6999                 2.2007                 2.0024
 Frc consts  --      0.8224                 1.2332                 1.1854
 IR Inten    --    107.9847                 8.1569                 5.9378

                     28                     29                     30
                      A                      A                      A
 Frequencies --   1028.4752              1036.3010              1084.8293
 Red. masses --      1.5932                 2.1692                 2.6413
 Frc consts  --      0.9929                 1.3725                 1.8314
 IR Inten    --     15.8667                30.3846                18.2037

                     31                     32                     33
                      A                      A                      A
 Frequencies --   1104.4691              1136.2846              1149.2665
 Red. masses --      2.3297                 1.7155                 1.4908
 Frc consts  --      1.6744                 1.3050                 1.1601
 IR Inten    --     13.6926                11.3467                14.3792

                     34                     35                     36
                      A                      A                      A
 Frequencies --   1182.9049              1205.8448              1268.4688
 Red. masses --      1.5753                 2.2790                 1.5066
 Frc consts  --      1.2987                 1.9524                 1.4283
 IR Inten    --     10.2748               108.9154                12.9907

                     37                     38                     39
                      A                      A                      A
 Frequencies --   1289.4338              1299.5137              1334.8412
 Red. masses --      1.2548                 1.4874                 1.2650
 Frc consts  --      1.2292                 1.4799                 1.3280
 IR Inten    --     32.5628                10.2556                13.2099

                     40                     41                     42
                      A                      A                      A
 Frequencies --   1347.2659              1354.5107              1385.6289
 Red. masses --      1.7132                 1.5169                 1.3346
 Frc consts  --      1.8322                 1.6397                 1.5097
 IR Inten    --     15.5280                19.6447                 0.6522

                     43                     44                     45
                      A                      A                      A
 Frequencies --   1410.0484              1425.5175              1483.7864
 Red. masses --      1.2983                 1.4891                 1.1004
 Frc consts  --      1.5209                 1.7829                 1.4273
 IR Inten    --      2.8804                18.1238                 5.9588

                     46                     47                     48
                      A                      A                      A
 Frequencies --   1485.4939              1499.3898              1506.1218
 Red. masses --      1.0872                 1.0389                 1.1965
 Frc consts  --      1.4135                 1.3762                 1.5992
 IR Inten    --      4.9526                 4.6860                25.5267

                     49                     50                     51
                      A                      A                      A
 Frequencies --   1522.4999              1527.4477              1624.6443
 Red. masses --      1.0862                 1.0880                 1.1221
 Frc consts  --      1.4834                 1.4956                 1.7451
 IR Inten    --      0.4637                 3.1093                35.2992

                     52                     53                     54
                      A                      A                      A
 Frequencies --   1637.7631              1659.0033              2926.6594
 Red. masses --      1.1039                 1.0887                 1.0731
 Frc consts  --      1.7445                 1.7654                 5.4154
 IR Inten    --     18.0714                20.9731                77.0221

                     55                     56                     57
                      A                      A                      A
 Frequencies --   2940.4238              3013.7633              3028.5237
 Red. masses --      1.0726                 1.0602                 1.0378
 Frc consts  --      5.4641                 5.6738                 5.6083
 IR Inten    --     72.3382                27.9340                30.2904

                     58                     59                     60
                      A                      A                      A
 Frequencies --   3053.9155              3077.6129              3086.2636
 Red. masses --      1.0978                 1.0878                 1.0902
 Frc consts  --      6.0324                 6.0703                 6.1180
 IR Inten    --     17.1374                 1.5595                29.5641

                     61                     62                     63
                      A                      A                      A
 Frequencies --   3098.7410              3115.2360              3480.3451
 Red. masses --      1.0956                 1.1021                 1.0497
 Frc consts  --      6.1985                 6.3019                 7.4914
 IR Inten    --     43.9765                29.4372                 1.7333

                     64                     65                     66
                      A                      A                      A
 Frequencies --   3496.9417              3511.1638              3516.7917
 Red. masses --      1.0484                 1.0482                 1.0735
 Frc consts  --      7.5535                 7.6140                 7.8224
 IR Inten    --      0.4981                 0.4043                 0.3696

                     67                     68                     69
                      A                      A                      A
 Frequencies --   3558.4461              3585.0833              3604.6320
 Red. masses --      1.0915                 1.0929                 1.0935
 Frc consts  --      8.1433                 8.2764                 8.3716
 IR Inten    --      0.1722                 0.5576                 1.4198

 - Thermochemistry -
 -------------------
 Temperature   298.150 Kelvin.  Pressure   1.00000 Atm.
 Atom     1 has atomic number  6 and mass  12.00000

 Molecular mass:   132.13750 amu.
 Principal axes and moments of inertia in atomic units:
                           1         2         3
     Eigenvalues --   545.279852520.103452664.59547
           X            0.99995  -0.00662   0.00726
           Y            0.00652   0.99988   0.01395
           Z           -0.00735  -0.01391   0.99988
 This molecule is an asymmetric top.
 Rotational symmetry number  1.
 Warning -- assumption of classical behavior for rotation
           may cause significant error
 Rotational temperatures (Kelvin)      0.15884     0.03437     0.03251
 Rotational constants (GHZ):           3.30975     0.71614     0.67730
 Zero-point vibrational energy     602517.1 (Joules/Mol)
                                  144.00503 (Kcal/Mol)
 Warning -- explicit consideration of  16 degrees of freedom as
           vibrations may cause significant error
 Vibrational temperatures:     98.03   109.97   134.87   169.08   205.36
          (Kelvin)            332.58   369.42   387.13   436.14   448.45
                              468.77   513.79   526.53   595.23   704.65
                              736.45   929.84  1054.10  1142.00  1164.61
                             1184.78  1217.79  1260.40  1298.43  1303.73
                             1403.14  1442.17  1479.75  1491.01  1560.83
                             1589.08  1634.86  1653.54  1701.94  1734.94
                             1825.04  1855.21  1869.71  1920.54  1938.42
                             1948.84  1993.61  2028.75  2051.00  2134.84
                             2137.29  2157.29  2166.97  2190.54  2197.66
                             2337.50  2356.38  2386.94  4210.81  4230.61
                             4336.13  4357.37  4393.90  4428.00  4440.45
                             4458.40  4482.13  5007.44  5031.32  5051.78
                             5059.88  5119.81  5158.14  5186.26

 Zero-point correction=                           0.229487 (Hartree/Particle)
 Thermal correction to Energy=                    0.241192
 Thermal correction to Enthalpy=                  0.242136
 Thermal correction to Gibbs Free Energy=         0.192543
 Sum of electronic and zero-point Energies=           -418.964565
 Sum of electronic and thermal Energies=              -418.952860
 Sum of electronic and thermal Enthalpies=            -418.951916
 Sum of electronic and thermal Free Energies=         -419.001509

                     E (Thermal)             CV                S
                      KCal/Mol        Cal/Mol-Kelvin    Cal/Mol-Kelvin
 Total                  151.350             43.348            104.377
 Electronic               0.000              0.000              0.000
 Translational            0.889              2.981             40.549
 Rotational               0.889              2.981             29.683
 Vibrational            149.573             37.387             34.145
 Vibration     1          0.598              1.969              4.207
 Vibration     2          0.599              1.965              3.980
 Vibration     3          0.603              1.954              3.581
 Vibration     4          0.608              1.935              3.141
 Vibration     5          0.616              1.910              2.767
 Vibration     6          0.653              1.793              1.870
 Vibration     7          0.666              1.751              1.684
 Vibration     8          0.673              1.730              1.602
 Vibration     9          0.695              1.668              1.400
 Vibration    10          0.700              1.651              1.353
 Vibration    11          0.710              1.624              1.281
 Vibration    12          0.732              1.561              1.135
 Vibration    13          0.739              1.542              1.097
 Vibration    14          0.777              1.440              0.914
 Vibration    15          0.846              1.273              0.684
 Vibration    16          0.867              1.224              0.629

                           ! Non-Optimized Parameters !
 Normal termination of Gaussian 16 at Mon May 31 16:52:26 2021.
