 Gaussian 16, Revision A.03,
 Gaussian 16:  ES64L-G16RevA.03 25-Dec-2016

 -----------------------------
 # opt freq b3lyp/6-31g(2df,p)
 -----------------------------

 -------------------
 Title Card Required
 -------------------
 Symbolic Z-matrix:
 Charge =  0 Multiplicity = 1

 SCF Done:  E(RB3LYP) =  -495.388633919     A.U. after   15 cycles
 SCF Done:  E(RB3LYP) =  -495.392688341     A.U. after   12 cycles
 SCF Done:  E(RB3LYP) =  -495.393296620     A.U. after   12 cycles
 SCF Done:  E(RB3LYP) =  -495.394061554     A.U. after   13 cycles
 SCF Done:  E(RB3LYP) =  -495.393796815     A.U. after   14 cycles
 SCF Done:  E(RB3LYP) =  -495.395520594     A.U. after   13 cycles
 SCF Done:  E(RB3LYP) =  -495.396168222     A.U. after   13 cycles
 SCF Done:  E(RB3LYP) =  -495.396548279     A.U. after   12 cycles
 SCF Done:  E(RB3LYP) =  -495.396824597     A.U. after   12 cycles
 SCF Done:  E(RB3LYP) =  -495.397053597     A.U. after   12 cycles
 SCF Done:  E(RB3LYP) =  -495.410059345     A.U. after   12 cycles
 SCF Done:  E(RB3LYP) =  -495.412381077     A.U. after   12 cycles
 SCF Done:  E(RB3LYP) =  -495.412855937     A.U. after   12 cycles
 SCF Done:  E(RB3LYP) =  -495.413035014     A.U. after   11 cycles
 SCF Done:  E(RB3LYP) =  -495.413101667     A.U. after   10 cycles
 SCF Done:  E(RB3LYP) =  -495.413123887     A.U. after   10 cycles
 SCF Done:  E(RB3LYP) =  -495.413127277     A.U. after    9 cycles
 SCF Done:  E(RB3LYP) =  -495.413128226     A.U. after    8 cycles
 SCF Done:  E(RB3LYP) =  -495.413128426     A.U. after    7 cycles
 Optimization completed.
    -- Stationary point found.
 Normal termination of Gaussian 16 at Mon May 31 22:15:26 2021.

 ----------------------------------------------------------------------
 #N Geom=AllCheck Guess=TCheck SCRF=Check GenChk RB3LYP/6-31G(2df,p) Fr
 eq
 ----------------------------------------------------------------------

 Structure from the checkpoint file:  "CCNCNdCNdCpNpCC.chk"
 -------------------
 Title Card Required
 -------------------
 Charge =  0 Multiplicity = 1

                         Standard orientation:
 ---------------------------------------------------------------------
 Center     Atomic      Atomic             Coordinates (Angstroms)
 Number     Number       Type             X           Y           Z
 ---------------------------------------------------------------------
      1          6           0        4.888780    0.580908    0.998687
      2          6           0        4.047240   -0.162767   -0.034261
      3          7           0        2.623566    0.046150    0.202838
      4          6           0        1.774279   -0.605740   -0.788617
      5          7           0        0.408204   -0.160985   -0.628463
      6          6           0       -0.464438   -1.035971   -0.265349
      7          7           0       -1.804515   -0.840732   -0.049788
      8          6           0       -2.347826    0.339511   -0.203054
      9          7           0       -1.686194    1.449023   -0.567822
     10          6           0       -3.843112    0.476312    0.006310
     11          6           0       -4.397767   -0.428994    1.107944
     12          1           0        5.955140    0.391605    0.843070
     13          1           0        4.620738    0.266662    2.011341
     14          1           0        4.730598    1.663578    0.929093
     15          1           0        4.244350   -1.240832    0.038024
     16          1           0        4.359535    0.136601   -1.054084
     17          1           0        2.415177    1.041054    0.186741
     18          1           0        1.875576   -1.697400   -0.659720
     19          1           0        2.089592   -0.372495   -1.825065
     20          1           0       -0.157831   -2.078168   -0.101382
     21          1           0       -0.684860    1.337355   -0.745940
     22          1           0       -2.165374    2.327160   -0.668514
     23          1           0       -4.327348    0.232906   -0.949123
     24          1           0       -4.083883    1.526486    0.211800
     25          1           0       -4.131116   -1.468148    0.910462
     26          1           0       -5.486786   -0.341225    1.161980
     27          1           0       -3.983863   -0.158887    2.084003
 ---------------------------------------------------------------------

 SCF Done:  E(RB3LYP) =  -495.413128426     A.U. after    1 cycles

 The electronic state is 1-A.
 Alpha  occ. eigenvalues --  -14.34679 -14.30313 -14.30144 -14.28980 -10.26193
 Alpha  occ. eigenvalues --  -10.23266 -10.21935 -10.19872 -10.19467 -10.17219
 Alpha  occ. eigenvalues --  -10.16987  -0.96600  -0.91926  -0.88065  -0.84255
 Alpha  occ. eigenvalues --   -0.77197  -0.73368  -0.66911  -0.63760  -0.60578
 Alpha  occ. eigenvalues --   -0.59823  -0.55177  -0.53202  -0.49652  -0.47414
 Alpha  occ. eigenvalues --   -0.45853  -0.45221  -0.44884  -0.43110  -0.40657
 Alpha  occ. eigenvalues --   -0.39520  -0.38993  -0.36676  -0.36209  -0.35501
 Alpha  occ. eigenvalues --   -0.34633  -0.34177  -0.33838  -0.30457  -0.25187
 Alpha  occ. eigenvalues --   -0.25028  -0.22758  -0.21313
 Alpha virt. eigenvalues --   -0.01717   0.08064   0.08703   0.09732   0.11722
 Alpha virt. eigenvalues --    0.12268   0.12990   0.14677   0.15127   0.16140
 Alpha virt. eigenvalues --    0.16570   0.17042   0.17401   0.17849   0.19067

 Mulliken charges:
               1
     1  C   -0.386071
     2  C   -0.094891
     3  N   -0.282054
     4  C   -0.087937
     5  N   -0.259395
     6  C    0.107506
     7  N   -0.364017
     8  C    0.417356
     9  N   -0.513547
    10  C   -0.266062
    11  C   -0.367231
    12  H    0.112410
    13  H    0.127263
    14  H    0.109287
    15  H    0.101663
    16  H    0.071947
    17  H    0.206210
    18  H    0.085740
    19  H    0.074012
    20  H    0.082796
    21  H    0.270544
    22  H    0.251474
    23  H    0.130027
    24  H    0.096542
    25  H    0.149161
    26  H    0.106528
    27  H    0.120740
 Sum of Mulliken charges =  -0.00000

 Dipole moment (field-independent basis, Debye):
    X=             -0.7117    Y=              2.4962    Z=             -0.9665  Tot=              2.7698
 Quadrupole moment (field-independent basis, Debye-Ang):
   XX=            -60.4535   YY=            -63.0572   ZZ=            -70.2171
   XY=             -5.8617   XZ=             -0.1815   YZ=             -0.6854

  Exact polarizability: 159.820  -6.526 101.930  -5.859  -2.626  79.972
 Approx polarizability: 185.116  -7.999 165.437  -9.867  -7.477 118.644

                      1                      2                      3
                      A                      A                      A
 Frequencies --      9.7979                37.3096                54.2614
 Red. masses --      2.4098                 3.5365                 3.2084
 Frc consts  --      0.0001                 0.0029                 0.0056
 IR Inten    --      0.5773                 0.5673                 2.5103

                      4                      5                      6
                      A                      A                      A
 Frequencies --     64.9371               106.6634               123.1023
 Red. masses --      1.7737                 3.4521                 2.7791
 Frc consts  --      0.0044                 0.0231                 0.0248
 IR Inten    --      1.2820                 0.3952                 0.4329

                      7                      8                      9
                      A                      A                      A
 Frequencies --    179.3992               210.6317               217.4912
 Red. masses --      2.3974                 3.5387                 1.2353
 Frc consts  --      0.0455                 0.0925                 0.0344
 IR Inten    --      2.4381                 2.6833                 0.9953

                     10                     11                     12
                      A                      A                      A
 Frequencies --    230.4706               254.9317               336.9287
 Red. masses --      2.9956                 1.1853                 2.1330
 Frc consts  --      0.0937                 0.0454                 0.1427
 IR Inten    --      8.4541                 2.2773                53.0366

                     13                     14                     15
                      A                      A                      A
 Frequencies --    353.1081               396.8030               420.2488
 Red. masses --      3.2531                 1.5876                 2.6637
 Frc consts  --      0.2390                 0.1473                 0.2772
 IR Inten    --      6.4609                68.8740                 7.8003

                     16                     17                     18
                      A                      A                      A
 Frequencies --    463.4357               488.9956               519.0608
 Red. masses --      2.7413                 3.2838                 3.5900
 Frc consts  --      0.3469                 0.4626                 0.5699
 IR Inten    --      5.0382                 2.0616                 0.3291

                     19                     20                     21
                      A                      A                      A
 Frequencies --    660.0141               762.9489               785.8700
 Red. masses --      2.3832                 2.9400                 1.3333
 Frc consts  --      0.6117                 1.0083                 0.4852
 IR Inten    --      2.0907                 7.4921                49.5885

                     22                     23                     24
                      A                      A                      A
 Frequencies --    795.5192               818.1268               824.0932
 Red. masses --      1.1973                 1.1578                 1.3706
 Frc consts  --      0.4464                 0.4566                 0.5484
 IR Inten    --     13.0844                 2.5381                33.5106

                     25                     26                     27
                      A                      A                      A
 Frequencies --    854.6888               931.1995              1000.8199
 Red. masses --      3.8976                 1.5517                 1.9039
 Frc consts  --      1.6775                 0.7928                 1.1236
 IR Inten    --     17.2922                 3.2990                 7.1329

                     28                     29                     30
                      A                      A                      A
 Frequencies --   1018.8821              1043.0115              1052.6293
 Red. masses --      1.8336                 2.3463                 1.6951
 Frc consts  --      1.1215                 1.5038                 1.1066
 IR Inten    --      6.3330                 4.4686                32.2236

                     31                     32                     33
                      A                      A                      A
 Frequencies --   1082.4643              1092.3341              1102.4986
 Red. masses --      1.7640                 1.9854                 1.6662
 Frc consts  --      1.2178                 1.3958                 1.1933
 IR Inten    --     25.3104                 1.0236                 8.6590

                     34                     35                     36
                      A                      A                      A
 Frequencies --   1106.4834              1137.5188              1155.1684
 Red. masses --      2.9264                 2.6372                 2.5527
 Frc consts  --      2.1109                 2.0105                 2.0070
 IR Inten    --      8.7886                54.8965                57.9587

                     37                     38                     39
                      A                      A                      A
 Frequencies --   1204.4549              1256.7918              1282.5174
 Red. masses --      1.7918                 1.3114                 1.4459
 Frc consts  --      1.5315                 1.2205                 1.4013
 IR Inten    --     11.6564                 4.8070                22.6181

                     40                     41                     42
                      A                      A                      A
 Frequencies --   1301.8632              1306.5342              1338.8161
 Red. masses --      2.1144                 1.1710                 1.5634
 Frc consts  --      2.1114                 1.1778                 1.6511
 IR Inten    --     89.7161                 4.0424                25.1530

                     43                     44                     45
                      A                      A                      A
 Frequencies --   1359.4705              1402.9908              1407.0504
 Red. masses --      1.2418                 1.2198                 1.2378
 Frc consts  --      1.3522                 1.4146                 1.4438
 IR Inten    --     70.0885                19.7967                 7.8028

                     46                     47                     48
                      A                      A                      A
 Frequencies --   1413.3261              1428.8037              1443.0626
 Red. masses --      1.2582                 1.4831                 2.1569
 Frc consts  --      1.4808                 1.7839                 2.6464
 IR Inten    --     13.3487                17.2004                 3.4919

                     49                     50                     51
                      A                      A                      A
 Frequencies --   1468.3275              1471.2248              1491.3496
 Red. masses --      1.1185                 1.1902                 1.0424
 Frc consts  --      1.4208                 1.5179                 1.3660
 IR Inten    --     10.7801                98.0191                 6.2165

                     52                     53                     54
                      A                      A                      A
 Frequencies --   1494.6096              1499.1714              1506.8143
 Red. masses --      1.0597                 1.0573                 1.0709
 Frc consts  --      1.3947                 1.4001                 1.4326
 IR Inten    --     25.5002                 1.9925                 0.3940

                     55                     56                     57
                      A                      A                      A
 Frequencies --   1516.4399              1529.0013              1539.3722
 Red. masses --      1.1018                 1.1110                 1.9647
 Frc consts  --      1.4928                 1.5304                 2.7430
 IR Inten    --      9.5314                29.0906               231.5534

                     58                     59                     60
                      A                      A                      A
 Frequencies --   1636.8273              1667.4621              2894.0192
 Red. masses --      3.2162                 4.2941                 1.0680
 Frc consts  --      5.0769                 7.0345                 5.2700
 IR Inten    --    530.0470               274.3462                51.6877

                     61                     62                     63
                      A                      A                      A
 Frequencies --   2907.5983              2954.6760              3019.6008
 Red. masses --      1.0738                 1.0897                 1.0605
 Frc consts  --      5.3485                 5.6051                 5.6974
 IR Inten    --    139.2359                55.2216                24.0452

                     64                     65                     66
                      A                      A                      A
 Frequencies --   3024.7546              3025.4910              3033.0353
 Red. masses --      1.0809                 1.0846                 1.0413
 Frc consts  --      5.8266                 5.8496                 5.6438
 IR Inten    --      1.1496                89.4764                35.1832

                     67                     68                     69
                      A                      A                      A
 Frequencies --   3047.4881              3055.4018              3097.5451
 Red. masses --      1.0438                 1.0921                 1.0987
 Frc consts  --      5.7116                 6.0069                 6.2108
 IR Inten    --     25.6968                25.1247                40.4002

                     70                     71                     72
                      A                      A                      A
 Frequencies --   3112.8228              3118.3833              3146.9994
 Red. masses --      1.1022                 1.1022                 1.0998
 Frc consts  --      6.2923                 6.3148                 6.4174
 IR Inten    --     31.7035                27.8531                11.8547

                     73                     74                     75
                      A                      A                      A
 Frequencies --   3332.8339              3498.1995              3680.0525
 Red. masses --      1.0633                 1.0730                 1.0887
 Frc consts  --      6.9586                 7.7366                 8.6870
 IR Inten    --    201.8028                 0.3040                64.5465

 - Thermochemistry -
 -------------------
 Temperature   298.150 Kelvin.  Pressure   1.00000 Atm.
 Atom     1 has atomic number  6 and mass  12.00000

 Molecular mass:   156.13750 amu.
 Principal axes and moments of inertia in atomic units:
                           1         2         3
     Eigenvalues --   564.171405298.882545396.73369
           X            1.00000   0.00080  -0.00255
           Y           -0.00080   1.00000  -0.00242
           Z            0.00255   0.00242   0.99999
 This molecule is an asymmetric top.
 Rotational symmetry number  1.
 Warning -- assumption of classical behavior for rotation
           may cause significant error
 Rotational temperatures (Kelvin)      0.15352     0.01635     0.01605
 Rotational constants (GHZ):           3.19892     0.34059     0.33441
 Zero-point vibrational energy     625689.0 (Joules/Mol)
                                  149.54326 (Kcal/Mol)
 Warning -- explicit consideration of  18 degrees of freedom as
           vibrations may cause significant error
 Vibrational temperatures:     14.10    53.68    78.07    93.43   153.46
          (Kelvin)            177.12   258.12   303.05   312.92   331.60
                              366.79   484.77   508.04   570.91   604.64
                              666.78   703.56   746.81   949.61  1097.71
                             1130.69  1144.57  1177.10  1185.69  1229.71
                             1339.79  1439.96  1465.94  1500.66  1514.50
                             1557.42  1571.63  1586.25  1591.98  1636.64
                             1662.03  1732.94  1808.24  1845.26  1873.09
                             1879.81  1926.26  1955.97  2018.59  2024.43
                             2033.46  2055.73  2076.25  2112.60  2116.76
                             2145.72  2150.41  2156.97  2167.97  2181.82
                             2199.89  2214.81  2355.03  2399.11  4163.85
                             4183.39  4251.12  4344.53  4351.95  4353.01
                             4363.86  4384.66  4396.04  4456.68  4478.66
                             4486.66  4527.83  4795.20  5033.13  5294.77

 Zero-point correction=                           0.238312 (Hartree/Particle)
 Thermal correction to Energy=                    0.251750
 Thermal correction to Enthalpy=                  0.252694
 Thermal correction to Gibbs Free Energy=         0.195676
 Sum of electronic and zero-point Energies=           -495.174816
 Sum of electronic and thermal Energies=              -495.161379
 Sum of electronic and thermal Enthalpies=            -495.160435
 Sum of electronic and thermal Free Energies=         -495.217452

                     E (Thermal)             CV                S
                      KCal/Mol        Cal/Mol-Kelvin    Cal/Mol-Kelvin
 Total                  157.975             47.244            120.004
 Electronic               0.000              0.000              0.000
 Translational            0.889              2.981             41.046
 Rotational               0.889              2.981             31.157
 Vibrational            156.198             41.282             47.801
 Vibration     1          0.593              1.987              8.052
 Vibration     2          0.594              1.982              5.397
 Vibration     3          0.596              1.976              4.656
 Vibration     4          0.597              1.971              4.301
 Vibration     5          0.606              1.944              3.329
 Vibration     6          0.610              1.930              3.051
 Vibration     7          0.629              1.868              2.335
 Vibration     8          0.643              1.825              2.038
 Vibration     9          0.646              1.814              1.980
 Vibration    10          0.652              1.794              1.875
 Vibration    11          0.665              1.754              1.696
 Vibration    12          0.718              1.602              1.227
 Vibration    13          0.729              1.569              1.152
 Vibration    14          0.763              1.477              0.974
 Vibration    15          0.783              1.426              0.891
 Vibration    16          0.821              1.331              0.756
 Vibration    17          0.845              1.274              0.686
 Vibration    18          0.874              1.208              0.612

                           ! Non-Optimized Parameters !
 Normal termination of Gaussian 16 at Mon May 31 23:24:19 2021.
