 Gaussian 16, Revision A.03,
 Gaussian 16:  ES64L-G16RevA.03 25-Dec-2016

 -----------------------------
 # opt freq b3lyp/6-31g(2df,p)
 -----------------------------

 -------------------
 Title Card Required
 -------------------
 Symbolic Z-matrix:
 Charge =  0 Multiplicity = 1

 SCF Done:  E(RB3LYP) =  -495.283474569     A.U. after   14 cycles
 SCF Done:  E(RB3LYP) =  -495.308539561     A.U. after   14 cycles
 SCF Done:  E(RB3LYP) =  -495.307769730     A.U. after   12 cycles
 SCF Done:  E(RB3LYP) =  -495.318575561     A.U. after   12 cycles
 SCF Done:  E(RB3LYP) =  -495.320220775     A.U. after   12 cycles
 SCF Done:  E(RB3LYP) =  -495.319258290     A.U. after   12 cycles
 SCF Done:  E(RB3LYP) =  -495.320438042     A.U. after   12 cycles
 SCF Done:  E(RB3LYP) =  -495.321370766     A.U. after   11 cycles
 SCF Done:  E(RB3LYP) =  -495.322393432     A.U. after   12 cycles
 SCF Done:  E(RB3LYP) =  -495.323831663     A.U. after   11 cycles
 SCF Done:  E(RB3LYP) =  -495.337421990     A.U. after   12 cycles
 SCF Done:  E(RB3LYP) =  -495.337024221     A.U. after   11 cycles
 SCF Done:  E(RB3LYP) =  -495.338097950     A.U. after   11 cycles
 SCF Done:  E(RB3LYP) =  -495.339004605     A.U. after   11 cycles
 SCF Done:  E(RB3LYP) =  -495.339089702     A.U. after   10 cycles
 SCF Done:  E(RB3LYP) =  -495.339121514     A.U. after   10 cycles
 SCF Done:  E(RB3LYP) =  -495.339129629     A.U. after    9 cycles
 SCF Done:  E(RB3LYP) =  -495.339133738     A.U. after    9 cycles
 SCF Done:  E(RB3LYP) =  -495.339134100     A.U. after    7 cycles
 Optimization completed.
    -- Stationary point found.
 Normal termination of Gaussian 16 at Tue Jun  1 19:24:45 2021.

 ----------------------------------------------------------------------
 #N Geom=AllCheck Guess=TCheck SCRF=Check GenChk RB3LYP/6-31G(2df,p) Fr
 eq
 ----------------------------------------------------------------------

 Structure from the checkpoint file:  "CCNCNpCCtNpNpCpC.chk"
 -------------------
 Title Card Required
 -------------------
 Charge =  0 Multiplicity = 1

                         Standard orientation:
 ---------------------------------------------------------------------
 Center     Atomic      Atomic             Coordinates (Angstroms)
 Number     Number       Type             X           Y           Z
 ---------------------------------------------------------------------
      1          6           0       -4.097811   -0.106729   -0.453225
      2          6           0       -2.942023    0.194878    0.496268
      3          7           0       -1.659206   -0.020109   -0.162950
      4          6           0       -0.515376    0.274765    0.671114
      5          7           0        0.715955   -0.035887   -0.043919
      6          6           0        1.872391    0.778387    0.351679
      7          6           0        1.720251    2.166432   -0.094915
      8          7           0        1.597159    3.262659   -0.438775
      9          7           0        0.958674   -1.430267   -0.112285
     10          6           0        1.503249   -1.811736   -1.401872
     11          6           0        1.673573   -2.005233    1.019114
     12          1           0       -5.059725    0.016907    0.052954
     13          1           0       -4.027798   -1.130950   -0.830180
     14          1           0       -4.086741    0.571766   -1.314023
     15          1           0       -2.990521   -0.479235    1.361938
     16          1           0       -3.053111    1.220380    0.898405
     17          1           0       -1.597482    0.544289   -1.005476
     18          1           0       -0.613285   -0.311442    1.600647
     19          1           0       -0.451001    1.337028    0.970138
     20          1           0        2.762893    0.366571   -0.133639
     21          1           0        2.073966    0.787926    1.436458
     22          1           0        0.865391   -1.406696   -2.188785
     23          1           0        1.509916   -2.903935   -1.475119
     24          1           0        2.539254   -1.461973   -1.573079
     25          1           0        1.200831   -1.696736    1.956063
     26          1           0        2.745283   -1.737826    1.063170
     27          1           0        1.608529   -3.095435    0.957062
 ---------------------------------------------------------------------

 SCF Done:  E(RB3LYP) =  -495.339134100     A.U. after    1 cycles

 The electronic state is 1-A.
 Alpha  occ. eigenvalues --  -14.36266 -14.35479 -14.32931 -14.30919 -10.25933
 Alpha  occ. eigenvalues --  -10.23504 -10.22156 -10.21341 -10.20580 -10.20501
 Alpha  occ. eigenvalues --  -10.17351  -1.00164  -0.90526  -0.90248  -0.84594
 Alpha  occ. eigenvalues --   -0.75903  -0.72538  -0.71767  -0.65957  -0.60573
 Alpha  occ. eigenvalues --   -0.59246  -0.53455  -0.51698  -0.49871  -0.47661
 Alpha  occ. eigenvalues --   -0.46497  -0.45694  -0.44399  -0.43752  -0.42387
 Alpha  occ. eigenvalues --   -0.39886  -0.39552  -0.38821  -0.37720  -0.36339
 Alpha  occ. eigenvalues --   -0.35845  -0.35572  -0.34469  -0.33467  -0.32543
 Alpha  occ. eigenvalues --   -0.24291  -0.22927  -0.22049
 Alpha virt. eigenvalues --    0.02384   0.03900   0.06770   0.08896   0.10529
 Alpha virt. eigenvalues --    0.11658   0.12010   0.13012   0.13696   0.13714
 Alpha virt. eigenvalues --    0.14788   0.15787   0.16120   0.17032   0.17637

 Mulliken charges:
               1
     1  C   -0.388008
     2  C   -0.102085
     3  N   -0.274297
     4  C   -0.078996
     5  N   -0.101795
     6  C   -0.308230
     7  C    0.281491
     8  N   -0.308036
     9  N   -0.020602
    10  C   -0.305655
    11  C   -0.323834
    12  H    0.114344
    13  H    0.127481
    14  H    0.114310
    15  H    0.101941
    16  H    0.078272
    17  H    0.214406
    18  H    0.090619
    19  H    0.095924
    20  H    0.159255
    21  H    0.136209
    22  H    0.136181
    23  H    0.121314
    24  H    0.088511
    25  H    0.125549
    26  H    0.094658
    27  H    0.131073
 Sum of Mulliken charges =  -0.00000

 Dipole moment (field-independent basis, Debye):
    X=              0.4783    Y=             -3.1305    Z=              1.4950  Tot=              3.5020
 Quadrupole moment (field-independent basis, Debye-Ang):
   XX=            -63.4946   YY=            -82.0515   ZZ=            -66.1598
   XY=             -8.2628   XZ=              1.6861   YZ=              2.2103

  Exact polarizability: 111.478  -2.051 114.218   0.470  -1.959  89.582
 Approx polarizability: 138.297  -3.042 167.323   0.224  -7.076 134.152

                      1                      2                      3
                      A                      A                      A
 Frequencies --     36.0343                66.1719                69.7613
 Red. masses --      3.9679                 2.5911                 2.8364
 Frc consts  --      0.0030                 0.0067                 0.0081
 IR Inten    --      2.6359                 4.1930                 1.2736

                      4                      5                      6
                      A                      A                      A
 Frequencies --     82.6859               110.8852               141.6774
 Red. masses --      2.1065                 3.6990                 2.9775
 Frc consts  --      0.0085                 0.0268                 0.0352
 IR Inten    --      0.3467                 2.8004                 1.8084

                      7                      8                      9
                      A                      A                      A
 Frequencies --    172.6783               223.9997               240.3653
 Red. masses --      3.2589                 1.3566                 1.7588
 Frc consts  --      0.0573                 0.0401                 0.0599
 IR Inten    --      2.0471                 0.6052                 0.5096

                     10                     11                     12
                      A                      A                      A
 Frequencies --    248.5371               256.3742               260.6237
 Red. masses --      1.3657                 1.2157                 1.7370
 Frc consts  --      0.0497                 0.0471                 0.0695
 IR Inten    --      3.0810                 0.0507                 1.2208

                     13                     14                     15
                      A                      A                      A
 Frequencies --    308.2323               343.4154               390.8361
 Red. masses --      2.5217                 4.1721                 3.2653
 Frc consts  --      0.1412                 0.2899                 0.2939
 IR Inten    --      1.8949                 0.3608                 0.7157

                     16                     17                     18
                      A                      A                      A
 Frequencies --    405.8682               458.2795               506.9152
 Red. masses --      2.5523                 3.1626                 3.3395
 Frc consts  --      0.2477                 0.3913                 0.5056
 IR Inten    --      7.2732                 3.2338                 8.2426

                     19                     20                     21
                      A                      A                      A
 Frequencies --    530.1775               582.9266               783.4950
 Red. masses --      3.8429                 4.7519                 1.3726
 Frc consts  --      0.6364                 0.9514                 0.4964
 IR Inten    --     10.7332                 0.8414                66.1914

                     22                     23                     24
                      A                      A                      A
 Frequencies --    786.5127               817.5509               902.7174
 Red. masses --      3.2943                 1.1223                 2.9263
 Frc consts  --      1.2007                 0.4420                 1.4050
 IR Inten    --      6.8601                 2.7437                17.3739

                     25                     26                     27
                      A                      A                      A
 Frequencies --    939.2072               955.3517               988.6440
 Red. masses --      1.8624                 3.4637                 2.0368
 Frc consts  --      0.9679                 1.8626                 1.1729
 IR Inten    --      7.0104                 5.2332                 1.6812

                     28                     29                     30
                      A                      A                      A
 Frequencies --   1015.1306              1042.3976              1048.3346
 Red. masses --      2.1044                 1.5980                 2.6281
 Frc consts  --      1.2777                 1.0231                 1.7017
 IR Inten    --     27.9779                 9.4924                 6.1441

                     31                     32                     33
                      A                      A                      A
 Frequencies --   1108.5525              1117.0502              1150.0130
 Red. masses --      1.8089                 1.2765                 2.1656
 Frc consts  --      1.3097                 0.9385                 1.6875
 IR Inten    --     14.5831                 4.0332                10.2633

                     34                     35                     36
                      A                      A                      A
 Frequencies --   1156.5584              1165.3185              1188.9471
 Red. masses --      2.2503                 3.2985                 1.6841
 Frc consts  --      1.7735                 2.6391                 1.4026
 IR Inten    --      4.3221                92.0545                 1.8027

                     37                     38                     39
                      A                      A                      A
 Frequencies --   1216.1013              1254.8483              1268.0775
 Red. masses --      1.9625                 2.3368                 1.6644
 Frc consts  --      1.7100                 2.1680                 1.5769
 IR Inten    --      2.8045                 3.7826                18.7453

                     40                     41                     42
                      A                      A                      A
 Frequencies --   1286.2821              1302.5469              1328.2805
 Red. masses --      1.2895                 1.9975                 1.1846
 Frc consts  --      1.2571                 1.9968                 1.2314
 IR Inten    --      0.9883                 9.3188                 4.5569

                     43                     44                     45
                      A                      A                      A
 Frequencies --   1373.9606              1380.1078              1408.9752
 Red. masses --      1.2628                 1.3980                 1.2563
 Frc consts  --      1.4045                 1.5688                 1.4695
 IR Inten    --     38.4762                 3.5991                10.4419

                     46                     47                     48
                      A                      A                      A
 Frequencies --   1433.6766              1445.6292              1459.5950
 Red. masses --      1.1616                 1.3462                 1.1682
 Frc consts  --      1.4067                 1.6575                 1.4663
 IR Inten    --      0.7286                 3.9717                 1.2234

                     49                     50                     51
                      A                      A                      A
 Frequencies --   1469.8695              1479.3346              1482.1949
 Red. masses --      1.0750                 1.1053                 1.0983
 Frc consts  --      1.3684                 1.4252                 1.4216
 IR Inten    --      2.0129                18.7435                29.3551

                     52                     53                     54
                      A                      A                      A
 Frequencies --   1495.6863              1496.4611              1498.9590
 Red. masses --      1.0708                 1.0634                 1.0571
 Frc consts  --      1.4113                 1.4031                 1.3994
 IR Inten    --      4.3334                27.2644                 7.2408

                     55                     56                     57
                      A                      A                      A
 Frequencies --   1502.4078              1507.5767              1512.7808
 Red. masses --      1.1079                 1.0885                 1.0501
 Frc consts  --      1.4734                 1.4576                 1.4159
 IR Inten    --     19.7173                 0.4088                 1.5327

                     58                     59                     60
                      A                      A                      A
 Frequencies --   1526.4083              2361.3858              2913.3794
 Red. masses --      1.0935                12.6150                 1.0731
 Frc consts  --      1.5011                41.4448                 5.3663
 IR Inten    --      1.5462                 7.8575                68.4537

                     61                     62                     63
                      A                      A                      A
 Frequencies --   2924.1651              2931.8671              2938.3440
 Red. masses --      1.0611                 1.0613                 1.0603
 Frc consts  --      5.3457                 5.3752                 5.3938
 IR Inten    --     60.1027                58.4069                77.2275

                     64                     65                     66
                      A                      A                      A
 Frequencies --   2960.5029              2967.5056              3026.1916
 Red. masses --      1.0703                 1.0970                 1.0820
 Frc consts  --      5.5268                 5.6915                 5.8381
 IR Inten    --     69.5070                49.1120                20.2352

                     67                     68                     69
                      A                      A                      A
 Frequencies --   3034.9443              3067.4925              3070.6788
 Red. masses --      1.0394                 1.0725                 1.0715
 Frc consts  --      5.6405                 5.9459                 5.9527
 IR Inten    --     30.6464                14.7814                40.6231

                     70                     71                     72
                      A                      A                      A
 Frequencies --   3079.4924              3100.3261              3111.9761
 Red. masses --      1.0866                 1.0992                 1.1029
 Frc consts  --      6.0714                 6.2248                 6.2930
 IR Inten    --      4.7402                35.8083                22.4914

                     73                     74                     75
                      A                      A                      A
 Frequencies --   3119.8080              3137.3474              3508.7121
 Red. masses --      1.1024                 1.1002                 1.0735
 Frc consts  --      6.3216                 6.3806                 7.7867
 IR Inten    --     26.5510                14.6551                 0.1639

 - Thermochemistry -
 -------------------
 Temperature   298.150 Kelvin.  Pressure   1.00000 Atm.
 Atom     1 has atomic number  6 and mass  12.00000

 Molecular mass:   156.13750 amu.
 Principal axes and moments of inertia in atomic units:
                           1         2         3
     Eigenvalues --  1578.686242624.236643639.67654
           X            0.99778  -0.06639   0.00486
           Y            0.06634   0.99773   0.01147
           Z           -0.00561  -0.01112   0.99992
 This molecule is an asymmetric top.
 Rotational symmetry number  1.
 Warning -- assumption of classical behavior for rotation
           may cause significant error
 Rotational temperatures (Kelvin)      0.05486     0.03301     0.02380
 Rotational constants (GHZ):           1.14319     0.68772     0.49585
 Zero-point vibrational energy     621975.0 (Joules/Mol)
                                  148.65560 (Kcal/Mol)
 Warning -- explicit consideration of  20 degrees of freedom as
           vibrations may cause significant error
 Vibrational temperatures:     51.85    95.21   100.37   118.97   159.54
          (Kelvin)            203.84   248.45   322.29   345.83   357.59
                              368.87   374.98   443.48   494.10   562.33
                              583.95   659.36   729.34   762.81   838.70
                             1127.27  1131.62  1176.27  1298.81  1351.31
                             1374.54  1422.44  1460.55  1499.78  1508.32
                             1594.96  1607.19  1654.61  1664.03  1676.63
                             1710.63  1749.70  1805.45  1824.48  1850.67
                             1874.07  1911.10  1976.82  1985.67  2027.20
                             2062.74  2079.94  2100.03  2114.81  2128.43
                             2132.55  2151.96  2153.07  2156.67  2161.63
                             2169.07  2176.55  2196.16  3397.51  4191.70
                             4207.22  4218.30  4227.62  4259.50  4269.58
                             4354.01  4366.61  4413.44  4418.02  4430.70
                             4460.68  4477.44  4488.71  4513.94  5048.25

 Zero-point correction=                           0.236898 (Hartree/Particle)
 Thermal correction to Energy=                    0.250456
 Thermal correction to Enthalpy=                  0.251400
 Thermal correction to Gibbs Free Energy=         0.196214
 Sum of electronic and zero-point Energies=           -495.102236
 Sum of electronic and thermal Energies=              -495.088678
 Sum of electronic and thermal Enthalpies=            -495.087734
 Sum of electronic and thermal Free Energies=         -495.142920

                     E (Thermal)             CV                S
                      KCal/Mol        Cal/Mol-Kelvin    Cal/Mol-Kelvin
 Total                  157.163             47.986            116.147
 Electronic               0.000              0.000              0.000
 Translational            0.889              2.981             41.046
 Rotational               0.889              2.981             31.089
 Vibrational            155.386             42.024             44.012
 Vibration     1          0.594              1.982              5.466
 Vibration     2          0.598              1.970              4.264
 Vibration     3          0.598              1.969              4.160
 Vibration     4          0.600              1.961              3.826
 Vibration     5          0.607              1.940              3.253
 Vibration     6          0.615              1.912              2.781
 Vibration     7          0.626              1.876              2.406
 Vibration     8          0.649              1.805              1.927
 Vibration     9          0.657              1.779              1.800
 Vibration    10          0.662              1.765              1.741
 Vibration    11          0.666              1.752              1.686
 Vibration    12          0.669              1.745              1.658
 Vibration    13          0.698              1.658              1.372
 Vibration    14          0.722              1.589              1.196
 Vibration    15          0.759              1.490              0.997
 Vibration    16          0.771              1.457              0.941
 Vibration    17          0.816              1.343              0.771
 Vibration    18          0.862              1.235              0.641
 Vibration    19          0.885              1.183              0.587
 Vibration    20          0.940              1.068              0.480

                           ! Non-Optimized Parameters !
 Normal termination of Gaussian 16 at Tue Jun  1 20:19:50 2021.
