 Gaussian 16, Revision A.03,
 Gaussian 16:  ES64L-G16RevA.03 25-Dec-2016

 -----------------------------
 # opt freq b3lyp/6-31g(2df,p)
 -----------------------------

 -------------------
 Title Card Required
 -------------------
 Symbolic Z-matrix:
 Charge =  0 Multiplicity = 1

 SCF Done:  E(RB3LYP) =  -551.844447885     A.U. after   13 cycles
 SCF Done:  E(RB3LYP) =  -551.858846433     A.U. after   12 cycles
 SCF Done:  E(RB3LYP) =  -551.868514443     A.U. after   12 cycles
 SCF Done:  E(RB3LYP) =  -551.872060602     A.U. after   11 cycles
 SCF Done:  E(RB3LYP) =  -551.878761391     A.U. after   12 cycles
 SCF Done:  E(RB3LYP) =  -551.832530908     A.U. after   13 cycles
 SCF Done:  E(RB3LYP) =  -551.887258726     A.U. after   13 cycles
 SCF Done:  E(RB3LYP) =  -551.890734978     A.U. after   12 cycles
 SCF Done:  E(RB3LYP) =  -551.890710374     A.U. after   11 cycles
 SCF Done:  E(RB3LYP) =  -551.889910882     A.U. after   12 cycles
 SCF Done:  E(RB3LYP) =  -551.898341445     A.U. after   11 cycles
 SCF Done:  E(RB3LYP) =  -551.898545546     A.U. after   10 cycles
 SCF Done:  E(RB3LYP) =  -551.898607177     A.U. after    9 cycles
 SCF Done:  E(RB3LYP) =  -551.898637730     A.U. after    9 cycles
 SCF Done:  E(RB3LYP) =  -551.898651952     A.U. after    9 cycles
 SCF Done:  E(RB3LYP) =  -551.898656267     A.U. after    9 cycles
 SCF Done:  E(RB3LYP) =  -551.898657371     A.U. after    7 cycles
 SCF Done:  E(RB3LYP) =  -551.898657565     A.U. after    7 cycles
 SCF Done:  E(RB3LYP) =  -551.898657618     A.U. after    6 cycles
 Optimization completed.
    -- Stationary point found.
 Normal termination of Gaussian 16 at Tue Jun  1 02:04:01 2021.

 ----------------------------------------------------------------------
 #N Geom=AllCheck Guess=TCheck SCRF=Check GenChk RB3LYP/6-31G(2df,p) Fr
 eq
 ----------------------------------------------------------------------

 Structure from the checkpoint file:  "CCNCCpCNNCCpdNN.chk"
 -------------------
 Title Card Required
 -------------------
 Charge =  0 Multiplicity = 1

                         Standard orientation:
 ---------------------------------------------------------------------
 Center     Atomic      Atomic             Coordinates (Angstroms)
 Number     Number       Type             X           Y           Z
 ---------------------------------------------------------------------
      1          6           0        2.523415    3.111368   -0.683527
      2          6           0        2.596397    1.938111    0.288958
      3          7           0        1.751472    0.831628   -0.156178
      4          6           0        1.824279   -0.348012    0.718090
      5          6           0        0.908444   -1.435112    0.215993
      6          6           0       -0.593611   -1.240425    0.236938
      7          7           0       -0.984072    0.042928    0.804767
      8          7           0       -2.397595    0.216676    0.741038
      9          6           0       -2.863479    0.900917   -0.466335
     10          6           0       -4.370499    1.131979   -0.402580
     11          7           0        1.471165   -2.489098   -0.247598
     12          7           0        0.662331   -3.474219   -0.783266
     13          1           0        3.132002    3.948644   -0.329279
     14          1           0        1.491169    3.454794   -0.799148
     15          1           0        2.896597    2.826530   -1.674127
     16          1           0        2.238698    2.251802    1.277965
     17          1           0        3.650014    1.631050    0.424252
     18          1           0        2.034604    0.551289   -1.091744
     19          1           0        1.504679   -0.029942    1.717868
     20          1           0        2.839953   -0.764506    0.797148
     21          1           0       -1.061902   -2.025352    0.852024
     22          1           0       -0.972518   -1.408408   -0.789696
     23          1           0       -0.487153    0.784815    0.306829
     24          1           0       -2.660827    0.763927    1.555124
     25          1           0       -2.620067    0.269346   -1.329186
     26          1           0       -2.342571    1.864228   -0.624417
     27          1           0       -4.902066    0.182942   -0.289273
     28          1           0       -4.726832    1.626466   -1.310787
     29          1           0       -4.635765    1.770543    0.448247
     30          1           0        1.178605   -4.343989   -0.789714
     31          1           0       -0.229402   -3.602552   -0.308646
 ---------------------------------------------------------------------

 SCF Done:  E(RB3LYP) =  -551.898657618     A.U. after    1 cycles

 The electronic state is 1-A.
 Alpha  occ. eigenvalues --  -14.34708 -14.33954 -14.32811 -14.32299 -14.31507
 Alpha  occ. eigenvalues --  -10.20460 -10.20388 -10.20239 -10.20158 -10.19876
 Alpha  occ. eigenvalues --  -10.17559 -10.17511  -0.97754  -0.95500  -0.90177
 Alpha  occ. eigenvalues --   -0.82120  -0.79314  -0.74241  -0.72458  -0.66525
 Alpha  occ. eigenvalues --   -0.64907  -0.60613  -0.60422  -0.54655  -0.51813
 Alpha  occ. eigenvalues --   -0.50671  -0.47194  -0.47016  -0.45774  -0.45258
 Alpha  occ. eigenvalues --   -0.44381  -0.42966  -0.42156  -0.41048  -0.38740
 Alpha  occ. eigenvalues --   -0.37963  -0.37488  -0.36010  -0.35853  -0.35225
 Alpha  occ. eigenvalues --   -0.34789  -0.34574  -0.34190  -0.26044  -0.23709
 Alpha  occ. eigenvalues --   -0.22305  -0.21885  -0.21326
 Alpha virt. eigenvalues --    0.02002   0.08291   0.08546   0.09632   0.11273
 Alpha virt. eigenvalues --    0.12303   0.12841   0.13064   0.13597   0.15274
 Alpha virt. eigenvalues --    0.15613   0.16353   0.16403   0.17696   0.18060

 Mulliken charges:
               1
     1  C   -0.389833
     2  C   -0.097431
     3  N   -0.294870
     4  C   -0.221037
     5  C    0.290784
     6  C   -0.209838
     7  N   -0.317326
     8  N   -0.265611
     9  C   -0.102402
    10  C   -0.388424
    11  N   -0.237420
    12  N   -0.433046
    13  H    0.116368
    14  H    0.122308
    15  H    0.113819
    16  H    0.105793
    17  H    0.081139
    18  H    0.217428
    19  H    0.118628
    20  H    0.095263
    21  H    0.113734
    22  H    0.103801
    23  H    0.222570
    24  H    0.221233
    25  H    0.106943
    26  H    0.078029
    27  H    0.127984
    28  H    0.116639
    29  H    0.112317
    30  H    0.254201
    31  H    0.238256
 Sum of Mulliken charges =  -0.00000

 Dipole moment (field-independent basis, Debye):
    X=             -0.4237    Y=              0.6583    Z=             -0.1415  Tot=              0.7956
 Quadrupole moment (field-independent basis, Debye-Ang):
   XX=            -74.4017   YY=            -66.9411   ZZ=            -76.5860
   XY=              1.6544   XZ=              0.4005   YZ=             -0.4604

  Exact polarizability: 127.988  -2.097 138.218   0.434   6.887  92.969
 Approx polarizability: 161.778  -4.438 183.155  -2.834  16.613 146.864

                      1                      2                      3
                      A                      A                      A
 Frequencies --     36.4068                57.7592                60.0601
 Red. masses --      3.3262                 3.2407                 3.1064
 Frc consts  --      0.0026                 0.0064                 0.0066
 IR Inten    --      0.6081                 1.0671                 0.2914

                      4                      5                      6
                      A                      A                      A
 Frequencies --     76.6360                90.2466               103.4495
 Red. masses --      1.9030                 1.8869                 2.9075
 Frc consts  --      0.0066                 0.0091                 0.0183
 IR Inten    --      0.5316                 0.7936                 1.4525

                      7                      8                      9
                      A                      A                      A
 Frequencies --    149.4889               169.1456               184.6162
 Red. masses --      2.1437                 3.1549                 2.7806
 Frc consts  --      0.0282                 0.0532                 0.0558
 IR Inten    --      6.0466                 3.1879                 1.6538

                     10                     11                     12
                      A                      A                      A
 Frequencies --    241.1549               255.8880               260.7263
 Red. masses --      1.4374                 1.3267                 1.9536
 Frc consts  --      0.0493                 0.0512                 0.0782
 IR Inten    --      0.2267                 2.2890                 0.2181

                     13                     14                     15
                      A                      A                      A
 Frequencies --    274.0321               303.7366               332.6426
 Red. masses --      2.9749                 2.8602                 2.7473
 Frc consts  --      0.1316                 0.1555                 0.1791
 IR Inten    --      3.1932                 0.5937                 3.9723

                     16                     17                     18
                      A                      A                      A
 Frequencies --    364.1813               399.2946               418.5602
 Red. masses --      1.7385                 2.6692                 2.3492
 Frc consts  --      0.1359                 0.2507                 0.2425
 IR Inten    --     25.6722                 0.2925                 6.3641

                     19                     20                     21
                      A                      A                      A
 Frequencies --    471.7451               548.2677               571.3575
 Red. masses --      2.7778                 3.5888                 3.1637
 Frc consts  --      0.3642                 0.6356                 0.6085
 IR Inten    --      3.9589                 2.3677                 3.9663

                     22                     23                     24
                      A                      A                      A
 Frequencies --    655.2115               757.8917               774.4801
 Red. masses --      3.6187                 1.6882                 1.6605
 Frc consts  --      0.9153                 0.5713                 0.5868
 IR Inten    --     17.1295               249.4375                35.2305

                     25                     26                     27
                      A                      A                      A
 Frequencies --    807.8232               818.3788               821.1559
 Red. masses --      1.1911                 1.1737                 1.2474
 Frc consts  --      0.4579                 0.4632                 0.4956
 IR Inten    --     38.7242                 5.2438                10.6608

                     28                     29                     30
                      A                      A                      A
 Frequencies --    834.6253               918.1920               925.0096
 Red. masses --      2.4563                 1.6123                 1.5499
 Frc consts  --      1.0081                 0.8009                 0.7814
 IR Inten    --     46.3339                12.7183                 6.6527

                     31                     32                     33
                      A                      A                      A
 Frequencies --    935.7095               975.6318              1011.7094
 Red. masses --      1.3049                 1.7225                 2.0770
 Frc consts  --      0.6732                 0.9660                 1.2526
 IR Inten    --     29.7831                24.3044                 5.5082

                     34                     35                     36
                      A                      A                      A
 Frequencies --   1033.3734              1049.8747              1118.2784
 Red. masses --      2.8358                 2.7257                 2.7338
 Frc consts  --      1.7842                 1.7701                 2.0143
 IR Inten    --      7.5995                 4.3198                68.1878

                     37                     38                     39
                      A                      A                      A
 Frequencies --   1122.9554              1128.6615              1136.2632
 Red. masses --      2.3692                 2.2445                 2.0718
 Frc consts  --      1.7603                 1.6846                 1.5760
 IR Inten    --     11.4224                11.1889                 5.5824

                     40                     41                     42
                      A                      A                      A
 Frequencies --   1147.8423              1159.5788              1174.5077
 Red. masses --      2.2323                 2.3059                 1.9376
 Frc consts  --      1.7329                 1.8268                 1.5748
 IR Inten    --     36.3468                 8.8259                11.0654

                     43                     44                     45
                      A                      A                      A
 Frequencies --   1222.6550              1245.6389              1258.5900
 Red. masses --      2.1397                 1.8314                 1.2265
 Frc consts  --      1.8845                 1.6742                 1.1447
 IR Inten    --      5.7276                 2.6362                 9.9425

                     46                     47                     48
                      A                      A                      A
 Frequencies --   1279.8458              1297.6199              1315.3980
 Red. masses --      1.4195                 1.1670                 1.2033
 Frc consts  --      1.3700                 1.1577                 1.2267
 IR Inten    --     12.5260                 6.3359                11.5633

                     49                     50                     51
                      A                      A                      A
 Frequencies --   1332.0943              1351.1392              1369.0456
 Red. masses --      1.3892                 1.5763                 1.4055
 Frc consts  --      1.4523                 1.6955                 1.5521
 IR Inten    --     13.2857                 8.0152                19.8769

                     52                     53                     54
                      A                      A                      A
 Frequencies --   1379.6176              1402.9265              1409.1669
 Red. masses --      1.3076                 1.2978                 1.2879
 Frc consts  --      1.4663                 1.5049                 1.5068
 IR Inten    --      9.1057                 3.0065                 4.8721

                     55                     56                     57
                      A                      A                      A
 Frequencies --   1422.6677              1477.0226              1482.7173
 Red. masses --      1.5016                 1.1535                 1.0687
 Frc consts  --      1.7906                 1.4826                 1.3843
 IR Inten    --      7.4706                21.1927                 2.8351

                     58                     59                     60
                      A                      A                      A
 Frequencies --   1488.8841              1493.9690              1496.2434
 Red. masses --      1.0789                 1.0884                 1.0590
 Frc consts  --      1.4091                 1.4312                 1.3968
 IR Inten    --     11.8823                 4.4302                10.8234

                     61                     62                     63
                      A                      A                      A
 Frequencies --   1497.8433              1500.6236              1504.2411
 Red. masses --      1.0466                 1.0792                 1.0985
 Frc consts  --      1.3835                 1.4318                 1.4645
 IR Inten    --      1.1745                 6.2264                 4.3576

                     64                     65                     66
                      A                      A                      A
 Frequencies --   1517.5436              1523.0741              1542.4001
 Red. masses --      1.1050                 1.0890                 1.1468
 Frc consts  --      1.4994                 1.4884                 1.6075
 IR Inten    --      4.3602                 3.1884                40.1266

                     67                     68                     69
                      A                      A                      A
 Frequencies --   1665.6030              1711.9392              2913.6282
 Red. masses --      1.1890                 5.0991                 1.0729
 Frc consts  --      1.9434                 8.8048                 5.3664
 IR Inten    --     22.5029                 3.4596                29.4416

                     70                     71                     72
                      A                      A                      A
 Frequencies --   2922.7972              2930.8713              2981.0694
 Red. masses --      1.0732                 1.0730                 1.0823
 Frc consts  --      5.4017                 5.4306                 5.6666
 IR Inten    --     68.8165                81.8499                26.1825

                     73                     74                     75
                      A                      A                      A
 Frequencies --   2986.9283              3031.6879              3032.7765
 Red. masses --      1.0653                 1.0479                 1.0406
 Frc consts  --      5.5997                 5.6747                 5.6390
 IR Inten    --     56.6241                12.6034                20.7819

                     76                     77                     78
                      A                      A                      A
 Frequencies --   3037.3014              3045.3300              3055.2270
 Red. masses --      1.0743                 1.0825                 1.0953
 Frc consts  --      5.8392                 5.9150                 6.0236
 IR Inten    --     28.6495                24.8554                19.1476

                     79                     80                     81
                      A                      A                      A
 Frequencies --   3099.0572              3099.8969              3116.2645
 Red. masses --      1.0993                 1.0983                 1.1022
 Frc consts  --      6.2208                 6.2183                 6.3062
 IR Inten    --     31.4426                39.3662                30.8879

                     82                     83                     84
                      A                      A                      A
 Frequencies --   3120.0799              3405.9620              3454.9318
 Red. masses --      1.1023                 1.0744                 1.0519
 Frc consts  --      6.3226                 7.3432                 7.3977
 IR Inten    --     24.0437                23.4287                 1.7645

                     85                     86                     87
                      A                      A                      A
 Frequencies --   3492.4466              3493.3929              3600.6415
 Red. masses --      1.0736                 1.0748                 1.0908
 Frc consts  --      7.7152                 7.7283                 8.3322
 IR Inten    --      0.2844                 2.1012                11.6872

 - Thermochemistry -
 -------------------
 Temperature   298.150 Kelvin.  Pressure   1.00000 Atm.
 Atom     1 has atomic number  6 and mass  12.00000

 Molecular mass:   173.16405 amu.
 Principal axes and moments of inertia in atomic units:
                           1         2         3
     Eigenvalues --  2334.271863293.525095170.15345
           X            0.99924   0.03845   0.00642
           Y           -0.03840   0.99923  -0.00773
           Z           -0.00671   0.00747   0.99995
 This molecule is an asymmetric top.
 Rotational symmetry number  1.
 Warning -- assumption of classical behavior for rotation
           may cause significant error
 Rotational temperatures (Kelvin)      0.03711     0.02630     0.01675
 Rotational constants (GHZ):           0.77315     0.54797     0.34907
 Zero-point vibrational energy     733821.4 (Joules/Mol)
                                  175.38751 (Kcal/Mol)
 Warning -- explicit consideration of  21 degrees of freedom as
           vibrations may cause significant error
 Vibrational temperatures:     52.38    83.10    86.41   110.26   129.84
          (Kelvin)            148.84   215.08   243.36   265.62   346.97
                              368.17   375.13   394.27   437.01   478.60
                              523.98   574.50   602.21   678.74   788.83
                              822.06   942.70  1090.44  1114.30  1162.28
                             1177.46  1181.46  1200.84  1321.07  1330.88
                             1346.28  1403.72  1455.62  1486.79  1510.54
                             1608.95  1615.68  1623.89  1634.83  1651.49
                             1668.38  1689.85  1759.13  1792.20  1810.83
                             1841.41  1866.99  1892.56  1916.59  1943.99
                             1969.75  1984.96  2018.50  2027.48  2046.90
                             2125.11  2133.30  2142.17  2149.49  2152.76
                             2155.06  2159.06  2164.27  2183.41  2191.36
                             2219.17  2396.43  2463.10  4192.06  4205.25
                             4216.87  4289.09  4297.52  4361.92  4363.49
                             4370.00  4381.55  4395.79  4458.85  4460.06
                             4483.61  4489.10  4900.42  4970.88  5024.85
                             5026.21  5180.52

 Zero-point correction=                           0.279498 (Hartree/Particle)
 Thermal correction to Energy=                    0.294414
 Thermal correction to Enthalpy=                  0.295358
 Thermal correction to Gibbs Free Energy=         0.236664
 Sum of electronic and zero-point Energies=           -551.619160
 Sum of electronic and thermal Energies=              -551.604244
 Sum of electronic and thermal Enthalpies=            -551.603299
 Sum of electronic and thermal Free Energies=         -551.661993

                     E (Thermal)             CV                S
                      KCal/Mol        Cal/Mol-Kelvin    Cal/Mol-Kelvin
 Total                  184.748             53.717            123.531
 Electronic               0.000              0.000              0.000
 Translational            0.889              2.981             41.355
 Rotational               0.889              2.981             32.053
 Vibrational            182.970             47.755             50.124
 Vibration     1          0.594              1.982              5.446
 Vibration     2          0.596              1.974              4.532
 Vibration     3          0.597              1.973              4.455
 Vibration     4          0.599              1.965              3.975
 Vibration     5          0.602              1.956              3.655
 Vibration     6          0.605              1.946              3.388
 Vibration     7          0.618              1.903              2.679
 Vibration     8          0.625              1.880              2.445
 Vibration     9          0.631              1.861              2.281
 Vibration    10          0.658              1.777              1.794
 Vibration    11          0.666              1.753              1.690
 Vibration    12          0.669              1.745              1.657
 Vibration    13          0.676              1.721              1.571
 Vibration    14          0.695              1.667              1.396
 Vibration    15          0.715              1.610              1.247
 Vibration    16          0.738              1.546              1.104
 Vibration    17          0.765              1.472              0.965
 Vibration    18          0.781              1.430              0.897
 Vibration    19          0.829              1.313              0.733
 Vibration    20          0.904              1.143              0.548
 Vibration    21          0.928              1.093              0.502

                           ! Non-Optimized Parameters !
 Normal termination of Gaussian 16 at Tue Jun  1 03:14:52 2021.
