 Gaussian 16, Revision A.03,
 Gaussian 16:  ES64L-G16RevA.03 25-Dec-2016

 -----------------------------
 # opt freq b3lyp/6-31g(2df,p)
 -----------------------------

 -------------------
 Title Card Required
 -------------------
 Symbolic Z-matrix:
 Charge =  0 Multiplicity = 1

 SCF Done:  E(RB3LYP) =  -441.188205444     A.U. after   12 cycles
 SCF Done:  E(RB3LYP) =  -441.214149943     A.U. after   11 cycles
 SCF Done:  E(RB3LYP) =  -441.220794283     A.U. after   10 cycles
 SCF Done:  E(RB3LYP) =  -441.222431214     A.U. after   10 cycles
 SCF Done:  E(RB3LYP) =  -441.223367117     A.U. after   10 cycles
 SCF Done:  E(RB3LYP) =  -441.224439441     A.U. after   10 cycles
 SCF Done:  E(RB3LYP) =  -441.224230208     A.U. after   11 cycles
 SCF Done:  E(RB3LYP) =  -441.225783797     A.U. after   10 cycles
 SCF Done:  E(RB3LYP) =  -441.226289953     A.U. after   10 cycles
 SCF Done:  E(RB3LYP) =  -441.226437071     A.U. after   10 cycles
 SCF Done:  E(RB3LYP) =  -441.226448620     A.U. after    8 cycles
 SCF Done:  E(RB3LYP) =  -441.226454600     A.U. after    8 cycles
 SCF Done:  E(RB3LYP) =  -441.226455648     A.U. after    7 cycles
 SCF Done:  E(RB3LYP) =  -441.226456121     A.U. after    7 cycles
 SCF Done:  E(RB3LYP) =  -441.226456303     A.U. after    6 cycles
 SCF Done:  E(RB3LYP) =  -441.226456410     A.U. after    6 cycles
 SCF Done:  E(RB3LYP) =  -441.226456444     A.U. after    6 cycles
 Optimization completed.
    -- Stationary point found.
 Normal termination of Gaussian 16 at Tue Jun  1 22:19:25 2021.

 ----------------------------------------------------------------------
 #N Geom=AllCheck Guess=TCheck SCRF=Check GenChk RB3LYP/6-31G(2df,p) Fr
 eq
 ----------------------------------------------------------------------

 Structure from the checkpoint file:  "CCNC1NCpCCpN1C.chk"
 -------------------
 Title Card Required
 -------------------
 Charge =  0 Multiplicity = 1

                         Standard orientation:
 ---------------------------------------------------------------------
 Center     Atomic      Atomic             Coordinates (Angstroms)
 Number     Number       Type             X           Y           Z
 ---------------------------------------------------------------------
      1          6           0       -3.923507    0.237792   -0.601340
      2          6           0       -2.508328   -0.331510   -0.534089
      3          7           0       -1.870496    0.017179    0.731198
      4          6           0       -0.457868   -0.158824    0.854052
      5          7           0        0.229453   -1.425900    0.422501
      6          6           0        1.172443   -0.592447   -0.371200
      7          6           0        2.596181   -0.644812    0.189247
      8          6           0        3.631528    0.117700   -0.644156
      9          7           0        0.334592    0.602112   -0.107895
     10          6           0        0.844196    1.907180    0.251934
     11          1           0       -4.395479   -0.006685   -1.558054
     12          1           0       -3.906142    1.325120   -0.485422
     13          1           0       -4.555447   -0.174818    0.193944
     14          1           0       -1.890336    0.097832   -1.328155
     15          1           0       -2.550822   -1.421219   -0.712276
     16          1           0       -2.361754   -0.371486    1.527294
     17          1           0       -0.212872    0.048055    1.910174
     18          1           0       -0.376754   -1.967272   -0.185838
     19          1           0        1.208488   -0.844634   -1.443200
     20          1           0        2.868624   -1.706069    0.230321
     21          1           0        2.596090   -0.294054    1.228132
     22          1           0        3.642321   -0.241612   -1.679580
     23          1           0        4.638248   -0.017820   -0.237080
     24          1           0        3.429643    1.192424   -0.671500
     25          1           0        1.325862    2.381741   -0.609198
     26          1           0        1.562034    1.901859    1.090537
     27          1           0       -0.004420    2.534436    0.542582
 ---------------------------------------------------------------------

 SCF Done:  E(RB3LYP) =  -441.226456444     A.U. after    1 cycles

 The electronic state is 1-A.
 Alpha  occ. eigenvalues --  -14.31296 -14.30814 -14.30000 -10.24976 -10.22701
 Alpha  occ. eigenvalues --  -10.20203 -10.19552 -10.17262 -10.17246 -10.17142
 Alpha  occ. eigenvalues --   -0.97887  -0.88826  -0.82070  -0.76649  -0.73899
 Alpha  occ. eigenvalues --   -0.67271  -0.65924  -0.62149  -0.58954  -0.52940
 Alpha  occ. eigenvalues --   -0.51993  -0.49000  -0.46735  -0.45006  -0.43169
 Alpha  occ. eigenvalues --   -0.42839  -0.41709  -0.40626  -0.40119  -0.38136
 Alpha  occ. eigenvalues --   -0.36548  -0.35760  -0.34813  -0.34701  -0.34225
 Alpha  occ. eigenvalues --   -0.32944  -0.31596  -0.24924  -0.22444  -0.20011
 Alpha virt. eigenvalues --    0.08360   0.08549   0.09888   0.11746   0.12629
 Alpha virt. eigenvalues --    0.12952   0.13888   0.14798   0.15993   0.16118
 Alpha virt. eigenvalues --    0.16860   0.17645   0.17967   0.18590   0.19512

 Mulliken charges:
               1
     1  C   -0.384186
     2  C   -0.120662
     3  N   -0.295375
     4  C    0.091022
     5  N   -0.380287
     6  C    0.051188
     7  C   -0.162625
     8  C   -0.393309
     9  N   -0.066063
    10  C   -0.338222
    11  H    0.112097
    12  H    0.125133
    13  H    0.108900
    14  H    0.123951
    15  H    0.075251
    16  H    0.217420
    17  H    0.061394
    18  H    0.216631
    19  H    0.062660
    20  H    0.104528
    21  H    0.098036
    22  H    0.113981
    23  H    0.113953
    24  H    0.119010
    25  H    0.119947
    26  H    0.095915
    27  H    0.129714
 Sum of Mulliken charges =  -0.00000

 Dipole moment (field-independent basis, Debye):
    X=             -0.4240    Y=             -0.0137    Z=             -0.2704  Tot=              0.5031
 Quadrupole moment (field-independent basis, Debye-Ang):
   XX=            -60.8255   YY=            -64.7010   ZZ=            -62.7941
   XY=              3.0105   XZ=             -1.3248   YZ=              1.9736

  Exact polarizability: 121.384   1.260  89.448  -1.684   2.164  85.252
 Approx polarizability: 141.721   1.296 131.329  -3.317   3.283 131.588

                      1                      2                      3
                      A                      A                      A
 Frequencies --     49.1698                61.4182               107.4295
 Red. masses --      3.4246                 2.4959                 1.9911
 Frc consts  --      0.0049                 0.0055                 0.0135
 IR Inten    --      0.4991                 0.1240                 0.8341

                      4                      5                      6
                      A                      A                      A
 Frequencies --    123.9693               170.9234               185.1130
 Red. masses --      1.9055                 2.5117                 1.4283
 Frc consts  --      0.0173                 0.0432                 0.0288
 IR Inten    --      0.0982                 0.6383                 0.0944

                      7                      8                      9
                      A                      A                      A
 Frequencies --    225.7745               235.9148               248.9431
 Red. masses --      1.3432                 1.6123                 1.5812
 Frc consts  --      0.0403                 0.0529                 0.0577
 IR Inten    --      2.0514                 1.6702                 0.7297

                     10                     11                     12
                      A                      A                      A
 Frequencies --    268.6082               286.6482               306.3718
 Red. masses --      1.4882                 2.8317                 3.0183
 Frc consts  --      0.0633                 0.1371                 0.1669
 IR Inten    --      0.7053                 4.2562                 0.6612

                     13                     14                     15
                      A                      A                      A
 Frequencies --    373.9424               455.9941               526.6566
 Red. masses --      2.5719                 3.2642                 2.4819
 Frc consts  --      0.2119                 0.3999                 0.4056
 IR Inten    --      5.6780                 9.4391                 3.8763

                     16                     17                     18
                      A                      A                      A
 Frequencies --    624.1431               675.7957               709.4437
 Red. masses --      1.7081                 1.7750                 4.6678
 Frc consts  --      0.3920                 0.4776                 1.3842
 IR Inten    --     91.3362                25.9181                 4.5944

                     19                     20                     21
                      A                      A                      A
 Frequencies --    755.0510               806.8286               825.6898
 Red. masses --      1.7722                 1.5506                 1.3027
 Frc consts  --      0.5953                 0.5947                 0.5233
 IR Inten    --      1.1686                60.8598                15.8960

                     22                     23                     24
                      A                      A                      A
 Frequencies --    833.6424               894.7998               935.8312
 Red. masses --      1.8043                 2.1371                 2.0756
 Frc consts  --      0.7388                 1.0081                 1.0710
 IR Inten    --      1.1755                42.8044                 4.7632

                     25                     26                     27
                      A                      A                      A
 Frequencies --    962.7242               998.3899              1023.9391
 Red. masses --      2.5151                 2.9570                 1.6859
 Frc consts  --      1.3735                 1.7366                 1.0415
 IR Inten    --      4.3371                57.4722                10.8687

                     28                     29                     30
                      A                      A                      A
 Frequencies --   1048.9141              1070.8173              1092.8360
 Red. masses --      2.5244                 2.2480                 1.5743
 Frc consts  --      1.6364                 1.5187                 1.1077
 IR Inten    --     24.0786                19.3879                18.4430

                     31                     32                     33
                      A                      A                      A
 Frequencies --   1122.5199              1139.4842              1147.3768
 Red. masses --      1.7947                 1.8028                 1.4753
 Frc consts  --      1.3324                 1.3792                 1.1443
 IR Inten    --     13.5498                 0.9685                11.8560

                     34                     35                     36
                      A                      A                      A
 Frequencies --   1182.9159              1196.4334              1232.9056
 Red. masses --      1.7811                 2.9397                 2.4694
 Frc consts  --      1.4684                 2.4793                 2.2115
 IR Inten    --      6.3688               102.4348                20.1735

                     37                     38                     39
                      A                      A                      A
 Frequencies --   1255.5175              1274.3877              1281.1995
 Red. masses --      2.0722                 1.2634                 1.5782
 Frc consts  --      1.9245                 1.2089                 1.5263
 IR Inten    --     26.3647                 1.2368                33.3917

                     40                     41                     42
                      A                      A                      A
 Frequencies --   1293.9611              1313.0199              1340.9164
 Red. masses --      1.2681                 1.5924                 1.3478
 Frc consts  --      1.2510                 1.6175                 1.4278
 IR Inten    --      6.6592                73.8816                 0.4568

                     43                     44                     45
                      A                      A                      A
 Frequencies --   1364.7642              1387.6719              1406.2221
 Red. masses --      1.3756                 1.2816                 1.3603
 Frc consts  --      1.5096                 1.4541                 1.5849
 IR Inten    --     26.9065                 4.7008                19.4618

                     46                     47                     48
                      A                      A                      A
 Frequencies --   1410.7793              1414.1467              1437.9149
 Red. masses --      1.2901                 1.2556                 1.2184
 Frc consts  --      1.5128                 1.4794                 1.4842
 IR Inten    --      2.0324                37.6247                24.5522

                     49                     50                     51
                      A                      A                      A
 Frequencies --   1456.2566              1475.3073              1486.4405
 Red. masses --      1.3079                 1.0679                 1.0905
 Frc consts  --      1.6342                 1.3695                 1.4196
 IR Inten    --     32.7821                 0.6072                 0.9602

                     52                     53                     54
                      A                      A                      A
 Frequencies --   1495.9436              1497.9673              1500.7875
 Red. masses --      1.0664                 1.0408                 1.0589
 Frc consts  --      1.4061                 1.3760                 1.4052
 IR Inten    --     12.3561                 1.5409                10.9662

                     55                     56                     57
                      A                      A                      A
 Frequencies --   1505.0954              1507.9452              1511.4922
 Red. masses --      1.0563                 1.0984                 1.1379
 Frc consts  --      1.4098                 1.4716                 1.5317
 IR Inten    --      7.7458                 5.0641                 6.9562

                     58                     59                     60
                      A                      A                      A
 Frequencies --   1521.0904              2931.1798              2941.3383
 Red. masses --      1.1284                 1.0731                 1.0814
 Frc consts  --      1.5383                 5.4321                 5.5121
 IR Inten    --      0.6194                72.0819                59.3004

                     61                     62                     63
                      A                      A                      A
 Frequencies --   2950.7412              2961.4721              3030.8315
 Red. masses --      1.0616                 1.0823                 1.0374
 Frc consts  --      5.4458                 5.5927                 5.6146
 IR Inten    --    126.8700                34.0181                30.9307

                     64                     65                     66
                      A                      A                      A
 Frequencies --   3033.3321              3034.5657              3059.9029
 Red. masses --      1.0568                 1.0407                 1.0761
 Frc consts  --      5.7293                 5.6466                 5.9361
 IR Inten    --      8.7602                35.3970                31.0752

                     67                     68                     69
                      A                      A                      A
 Frequencies --   3067.2855              3078.6574              3098.7327
 Red. masses --      1.1001                 1.0877                 1.1004
 Frc consts  --      6.0982                 6.0742                 6.2255
 IR Inten    --     14.8354                 1.2101                40.0824

                     70                     71                     72
                      A                      A                      A
 Frequencies --   3100.4185              3101.0456              3112.5651
 Red. masses --      1.0968                 1.1017                 1.1005
 Frc consts  --      6.2117                 6.2422                 6.2816
 IR Inten    --     41.3506                27.2232                29.7106

                     73                     74                     75
                      A                      A                      A
 Frequencies --   3117.8496              3525.6554              3550.6922
 Red. masses --      1.1023                 1.0747                 1.0742
 Frc consts  --      6.3132                 7.8709                 7.9792
 IR Inten    --     27.6301                 0.3889                 0.7566

 - Thermochemistry -
 -------------------
 Temperature   298.150 Kelvin.  Pressure   1.00000 Atm.
 Atom     1 has atomic number  6 and mass  12.00000

 Molecular mass:   143.14225 amu.
 Principal axes and moments of inertia in atomic units:
                           1         2         3
     Eigenvalues --   614.887072756.928312983.64263
           X            0.99998   0.00533   0.00272
           Y           -0.00542   0.99942   0.03364
           Z           -0.00254  -0.03366   0.99943
 This molecule is an asymmetric top.
 Rotational symmetry number  1.
 Warning -- assumption of classical behavior for rotation
           may cause significant error
 Rotational temperatures (Kelvin)      0.14086     0.03142     0.02903
 Rotational constants (GHZ):           2.93508     0.65462     0.60488
 Zero-point vibrational energy     644443.0 (Joules/Mol)
                                  154.02557 (Kcal/Mol)
 Warning -- explicit consideration of  15 degrees of freedom as
           vibrations may cause significant error
 Vibrational temperatures:     70.74    88.37   154.57   178.36   245.92
          (Kelvin)            266.34   324.84   339.43   358.17   386.47
                              412.42   440.80   538.02   656.07   757.74
                              898.00   972.32  1020.73  1086.35  1160.85
                             1187.98  1199.43  1287.42  1346.45  1385.15
                             1436.46  1473.22  1509.15  1540.67  1572.35
                             1615.06  1639.46  1650.82  1701.95  1721.40
                             1773.88  1806.41  1833.56  1843.36  1861.72
                             1889.14  1929.28  1963.59  1996.55  2023.24
                             2029.80  2034.64  2068.84  2095.23  2122.64
                             2138.66  2152.33  2155.24  2159.30  2165.50
                             2169.60  2174.70  2188.51  4217.31  4231.93
                             4245.46  4260.90  4360.69  4364.29  4366.06
                             4402.52  4413.14  4429.50  4458.39  4460.81
                             4461.71  4478.29  4485.89  5072.63  5108.65

 Zero-point correction=                           0.245455 (Hartree/Particle)
 Thermal correction to Energy=                    0.257430
 Thermal correction to Enthalpy=                  0.258374
 Thermal correction to Gibbs Free Energy=         0.207625
 Sum of electronic and zero-point Energies=           -440.981001
 Sum of electronic and thermal Energies=              -440.969027
 Sum of electronic and thermal Enthalpies=            -440.968083
 Sum of electronic and thermal Free Energies=         -441.018831

                     E (Thermal)             CV                S
                      KCal/Mol        Cal/Mol-Kelvin    Cal/Mol-Kelvin
 Total                  161.540             43.966            106.809
 Electronic               0.000              0.000              0.000
 Translational            0.889              2.981             40.787
 Rotational               0.889              2.981             30.004
 Vibrational            159.762             38.004             36.018
 Vibration     1          0.595              1.978              4.851
 Vibration     2          0.597              1.973              4.411
 Vibration     3          0.606              1.943              3.315
 Vibration     4          0.610              1.929              3.038
 Vibration     5          0.626              1.878              2.425
 Vibration     6          0.631              1.860              2.276
 Vibration     7          0.650              1.802              1.912
 Vibration     8          0.655              1.786              1.833
 Vibration     9          0.662              1.765              1.738
 Vibration    10          0.673              1.731              1.605
 Vibration    11          0.684              1.698              1.494
 Vibration    12          0.697              1.662              1.382
 Vibration    13          0.745              1.526              1.064
 Vibration    14          0.814              1.348              0.778
 Vibration    15          0.882              1.191              0.595

 Optimization completed.
    -- Stationary point found.
 Normal termination of Gaussian 16 at Tue Jun  1 23:12:58 2021.
