 Gaussian 16, Revision A.03,
 Gaussian 16:  ES64L-G16RevA.03 25-Dec-2016

 -----------------------------
 # opt freq b3lyp/6-31g(2df,p)
 -----------------------------

 -------------------
 Title Card Required
 -------------------
 Symbolic Z-matrix:
 Charge =  0 Multiplicity = 1

 SCF Done:  E(RB3LYP) =  -419.100210018     A.U. after   12 cycles
 SCF Done:  E(RB3LYP) =  -419.104519041     A.U. after   10 cycles
 SCF Done:  E(RB3LYP) =  -419.105493462     A.U. after   11 cycles
 SCF Done:  E(RB3LYP) =  -419.105522647     A.U. after   11 cycles
 SCF Done:  E(RB3LYP) =  -419.106485445     A.U. after   11 cycles
 SCF Done:  E(RB3LYP) =  -419.106917893     A.U. after   11 cycles
 SCF Done:  E(RB3LYP) =  -419.107040671     A.U. after   10 cycles
 SCF Done:  E(RB3LYP) =  -419.107115435     A.U. after   10 cycles
 SCF Done:  E(RB3LYP) =  -419.107167123     A.U. after   10 cycles
 SCF Done:  E(RB3LYP) =  -419.107230757     A.U. after   10 cycles
 SCF Done:  E(RB3LYP) =  -419.110994888     A.U. after   11 cycles
 SCF Done:  E(RB3LYP) =  -419.111229189     A.U. after   11 cycles
 SCF Done:  E(RB3LYP) =  -419.111442212     A.U. after   10 cycles
 SCF Done:  E(RB3LYP) =  -419.111484355     A.U. after   10 cycles
 SCF Done:  E(RB3LYP) =  -419.111491316     A.U. after    8 cycles
 SCF Done:  E(RB3LYP) =  -419.111492536     A.U. after    7 cycles
 SCF Done:  E(RB3LYP) =  -419.111492694     A.U. after    7 cycles
 SCF Done:  E(RB3LYP) =  -419.111492747     A.U. after    6 cycles
 SCF Done:  E(RB3LYP) =  -419.111492769     A.U. after    6 cycles
 Optimization completed.
    -- Stationary point found.
 Normal termination of Gaussian 16 at Tue Jun  1 11:26:08 2021.

 ----------------------------------------------------------------------
 #N Geom=AllCheck Guess=TCheck SCRF=Check GenChk RB3LYP/6-31G(2df,p) Fr
 eq
 ----------------------------------------------------------------------

 Structure from the checkpoint file:  "CCNCNpCpNpCpN.chk"
 -------------------
 Title Card Required
 -------------------
 Charge =  0 Multiplicity = 1

                         Standard orientation:
 ---------------------------------------------------------------------
 Center     Atomic      Atomic             Coordinates (Angstroms)
 Number     Number       Type             X           Y           Z
 ---------------------------------------------------------------------
      1          6           0       -3.685379   -0.029192   -0.684116
      2          6           0       -2.281953   -0.557225   -0.406076
      3          7           0       -1.653347    0.174458    0.692073
      4          6           0       -0.294066   -0.243880    0.987833
      5          7           0        0.623516    0.348802   -0.000098
      6          6           0        0.660101    1.799216    0.208211
      7          7           0        2.006120   -0.168874    0.179627
      8          6           0        2.031019   -1.628342    0.051463
      9          7           0        2.812373    0.323564   -0.884408
     10          1           0       -4.143277   -0.565321   -1.520772
     11          1           0       -3.656501    1.037068   -0.926373
     12          1           0       -4.337904   -0.158134    0.187774
     13          1           0       -1.645388   -0.424452   -1.286469
     14          1           0       -2.323878   -1.645791   -0.210982
     15          1           0       -2.217451    0.100612    1.531192
     16          1           0       -0.188187   -1.334261    0.941484
     17          1           0       -0.046152    0.076636    2.015093
     18          1           0       -0.371865    2.144391    0.267070
     19          1           0        1.142370    2.302410   -0.632281
     20          1           0        1.191163    2.065483    1.137588
     21          1           0        1.645978   -2.108199    0.952825
     22          1           0        3.076140   -1.910480   -0.069859
     23          1           0        1.459143   -1.985725   -0.821290
     24          1           0        3.058025    1.284033   -0.671366
     25          1           0        2.258827    0.332611   -1.747871
 ---------------------------------------------------------------------

 SCF Done:  E(RB3LYP) =  -419.111492769     A.U. after    1 cycles

 The electronic state is 1-A.
 Alpha  occ. eigenvalues --  -14.36466 -14.33784 -14.32841 -14.31356 -10.22518
 Alpha  occ. eigenvalues --  -10.20056 -10.19173 -10.18687 -10.17347  -0.99475
 Alpha  occ. eigenvalues --   -0.91418  -0.85514  -0.76853  -0.74068  -0.67218
 Alpha  occ. eigenvalues --   -0.64833  -0.60934  -0.56800  -0.51684  -0.49317
 Alpha  occ. eigenvalues --   -0.47751  -0.46521  -0.44729  -0.43962  -0.41606
 Alpha  occ. eigenvalues --   -0.41376  -0.39269  -0.38911  -0.37034  -0.36161
 Alpha  occ. eigenvalues --   -0.35650  -0.34561  -0.33831  -0.27995  -0.25123
 Alpha  occ. eigenvalues --   -0.22543  -0.19048
 Alpha virt. eigenvalues --    0.08178   0.08924   0.11337   0.11912   0.13113
 Alpha virt. eigenvalues --    0.13494   0.14871   0.15402   0.16072   0.17205
 Alpha virt. eigenvalues --    0.17314   0.17616   0.17845   0.18561   0.19202

 Mulliken charges:
               1
     1  C   -0.388803
     2  C   -0.101884
     3  N   -0.279282
     4  C   -0.105994
     5  N   -0.074861
     6  C   -0.310654
     7  N   -0.081022
     8  C   -0.281570
     9  N   -0.443372
    10  H    0.114648
    11  H    0.124891
    12  H    0.108368
    13  H    0.117550
    14  H    0.073155
    15  H    0.215287
    16  H    0.087171
    17  H    0.081083
    18  H    0.141732
    19  H    0.099769
    20  H    0.095624
    21  H    0.120309
    22  H    0.136518
    23  H    0.097192
    24  H    0.242089
    25  H    0.212058
 Sum of Mulliken charges =  -0.00000

 Dipole moment (field-independent basis, Debye):
    X=             -1.4301    Y=             -0.1296    Z=              0.2691  Tot=              1.4609
 Quadrupole moment (field-independent basis, Debye-Ang):
   XX=            -60.9949   YY=            -55.4399   ZZ=            -55.8466
   XY=              2.9784   XZ=             -2.2076   YZ=             -1.6896

  Exact polarizability: 103.116   0.578  86.412  -3.123  -0.173  79.080
 Approx polarizability: 126.791   1.117 121.894  -5.322   0.059 119.755

                      1                      2                      3
                      A                      A                      A
 Frequencies --     38.2059                59.4072                72.4786
 Red. masses --      2.9701                 3.0730                 2.3000
 Frc consts  --      0.0026                 0.0064                 0.0071
 IR Inten    --      0.9977                 0.5929                 0.0647

                      4                      5                      6
                      A                      A                      A
 Frequencies --    107.6203               229.6946               247.7913
 Red. masses --      2.1114                 1.4187                 1.2415
 Frc consts  --      0.0144                 0.0441                 0.0449
 IR Inten    --      1.5175                 2.0115                 0.6776

                      7                      8                      9
                      A                      A                      A
 Frequencies --    249.7130               273.5715               302.8612
 Red. masses --      1.3413                 2.0934                 1.6537
 Frc consts  --      0.0493                 0.0923                 0.0894
 IR Inten    --      0.1511                 3.6700                 1.6353

                     10                     11                     12
                      A                      A                      A
 Frequencies --    334.9310               347.1324               379.3400
 Red. masses --      2.6365                 2.0644                 1.5826
 Frc consts  --      0.1743                 0.1466                 0.1342
 IR Inten    --      7.7739                23.1000                 4.2423

                     13                     14                     15
                      A                      A                      A
 Frequencies --    429.7197               469.3571               505.5744
 Red. masses --      1.6603                 2.7719                 2.6182
 Frc consts  --      0.1806                 0.3598                 0.3943
 IR Inten    --      9.3218                 0.5402                 5.4508

                     16                     17                     18
                      A                      A                      A
 Frequencies --    538.0552               575.7873               716.5407
 Red. masses --      2.3946                 2.6844                 1.6428
 Frc consts  --      0.4084                 0.5244                 0.4970
 IR Inten    --      2.4600                16.9774                77.8443

                     19                     20                     21
                      A                      A                      A
 Frequencies --    798.8722               825.6642               878.0034
 Red. masses --      1.9874                 1.4388                 1.8813
 Frc consts  --      0.7473                 0.5779                 0.8545
 IR Inten    --      4.3512                 1.9841                12.2492

                     22                     23                     24
                      A                      A                      A
 Frequencies --    893.6401               927.2069              1005.1507
 Red. masses --      3.0219                 2.6085                 2.2781
 Frc consts  --      1.4218                 1.3213                 1.3561
 IR Inten    --     87.6097                54.7010                41.1535

                     25                     26                     27
                      A                      A                      A
 Frequencies --   1022.9220              1046.4736              1110.9379
 Red. masses --      1.7401                 2.3087                 2.0131
 Frc consts  --      1.0728                 1.4896                 1.4638
 IR Inten    --      9.0377                10.8913                28.8691

                     28                     29                     30
                      A                      A                      A
 Frequencies --   1130.6410              1139.6983              1154.0739
 Red. masses --      1.4839                 1.4295                 2.2131
 Frc consts  --      1.1177                 1.0940                 1.7367
 IR Inten    --      2.0716                13.8008                32.9697

                     31                     32                     33
                      A                      A                      A
 Frequencies --   1169.4479              1177.0581              1192.3745
 Red. masses --      1.7496                 2.0124                 2.2746
 Frc consts  --      1.4098                 1.6427                 1.9053
 IR Inten    --     14.9935                12.4736                51.7747

                     34                     35                     36
                      A                      A                      A
 Frequencies --   1215.8745              1279.1436              1292.1346
 Red. masses --      2.0015                 2.2365                 1.3401
 Frc consts  --      1.7434                 2.1561                 1.3183
 IR Inten    --     16.9025                 6.9506                15.0379

                     37                     38                     39
                      A                      A                      A
 Frequencies --   1318.3602              1340.2098              1383.0697
 Red. masses --      1.2053                 1.3200                 1.2866
 Frc consts  --      1.2343                 1.3969                 1.4500
 IR Inten    --      1.0683                 6.5786                11.5060

                     40                     41                     42
                      A                      A                      A
 Frequencies --   1409.1543              1413.0250              1432.1409
 Red. masses --      1.2037                 1.3029                 1.2035
 Frc consts  --      1.4083                 1.5327                 1.4544
 IR Inten    --      6.6753                 7.0757                 9.6161

                     43                     44                     45
                      A                      A                      A
 Frequencies --   1442.1366              1480.0334              1491.4027
 Red. masses --      1.2216                 1.1382                 1.0512
 Frc consts  --      1.4970                 1.4690                 1.3776
 IR Inten    --     11.8250                 5.1688                 9.0299

                     46                     47                     48
                      A                      A                      A
 Frequencies --   1497.0697              1499.3749              1501.7463
 Red. masses --      1.0563                 1.0496                 1.0488
 Frc consts  --      1.3948                 1.3903                 1.3936
 IR Inten    --      5.7695                 6.7668                 9.5951

                     49                     50                     51
                      A                      A                      A
 Frequencies --   1502.6511              1506.4900              1517.1102
 Red. masses --      1.1146                 1.0527                 1.0998
 Frc consts  --      1.4828                 1.4077                 1.4915
 IR Inten    --      7.8163                 4.7577                 5.4529

                     52                     53                     54
                      A                      A                      A
 Frequencies --   1525.6820              1669.5986              2919.4484
 Red. masses --      1.0911                 1.0807                 1.0737
 Frc consts  --      1.4964                 1.7749                 5.3917
 IR Inten    --      1.3249                12.9323                74.4987

                     55                     56                     57
                      A                      A                      A
 Frequencies --   2944.6504              2966.4818              2970.0426
 Red. masses --      1.0678                 1.0553                 1.0568
 Frc consts  --      5.4553                 5.4715                 5.4923
 IR Inten    --     64.3856               123.1161                 3.0074

                     58                     59                     60
                      A                      A                      A
 Frequencies --   3030.2913              3034.0313              3071.7140
 Red. masses --      1.0386                 1.0908                 1.0856
 Frc consts  --      5.6189                 5.9163                 6.0349
 IR Inten    --     27.4279                43.7672                 4.2221

                     61                     62                     63
                      A                      A                      A
 Frequencies --   3095.9335              3098.9551              3104.3156
 Red. masses --      1.0804                 1.0971                 1.0785
 Frc consts  --      6.1010                 6.2076                 6.1236
 IR Inten    --     25.7936                44.9070                30.7361

                     64                     65                     66
                      A                      A                      A
 Frequencies --   3117.3282              3151.4848              3154.9034
 Red. masses --      1.1022                 1.0976                 1.1000
 Frc consts  --      6.3107                 6.4227                 6.4506
 IR Inten    --     26.9486                 2.4602                15.0460

                     67                     68                     69
                      A                      A                      A
 Frequencies --   3365.2459              3534.5316              3556.1649
 Red. masses --      1.0570                 1.0741                 1.0822
 Frc consts  --      7.0525                 7.9059                 8.0633
 IR Inten    --     18.1329                 0.0804                 1.1321

 - Thermochemistry -
 -------------------
 Temperature   298.150 Kelvin.  Pressure   1.00000 Atm.
 Atom     1 has atomic number  6 and mass  12.00000

 Molecular mass:   132.13750 amu.
 Principal axes and moments of inertia in atomic units:
                           1         2         3
     Eigenvalues --   609.202052299.099182500.10873
           X            0.99999   0.00117   0.00476
           Y           -0.00113   0.99997  -0.00702
           Z           -0.00477   0.00701   0.99996
 This molecule is an asymmetric top.
 Rotational symmetry number  1.
 Warning -- assumption of classical behavior for rotation
           may cause significant error
 Rotational temperatures (Kelvin)      0.14218     0.03767     0.03464
 Rotational constants (GHZ):           2.96247     0.78498     0.72187
 Zero-point vibrational energy     599220.7 (Joules/Mol)
                                  143.21718 (Kcal/Mol)
 Warning -- explicit consideration of  17 degrees of freedom as
           vibrations may cause significant error
 Vibrational temperatures:     54.97    85.47   104.28   154.84   330.48
          (Kelvin)            356.52   359.28   393.61   435.75   481.89
                              499.45   545.79   618.27   675.30   727.41
                              774.14   828.43  1030.94  1149.40  1187.95
                             1263.25  1285.75  1334.04  1446.19  1471.76
                             1505.64  1598.39  1626.74  1639.77  1660.45
                             1682.57  1693.52  1715.56  1749.37  1840.40
                             1859.09  1896.83  1928.26  1989.93  2027.46
                             2033.03  2060.53  2074.91  2129.44  2145.80
                             2153.95  2157.27  2160.68  2161.98  2167.50
                             2182.78  2195.12  2402.18  4200.44  4236.70
                             4268.11  4273.23  4359.91  4365.29  4419.51
                             4454.36  4458.71  4466.42  4485.14  4534.28
                             4539.20  4841.84  5085.40  5116.53

 Zero-point correction=                           0.228231 (Hartree/Particle)
 Thermal correction to Energy=                    0.239606
 Thermal correction to Enthalpy=                  0.240550
 Thermal correction to Gibbs Free Energy=         0.190871
 Sum of electronic and zero-point Energies=           -418.883262
 Sum of electronic and thermal Energies=              -418.871887
 Sum of electronic and thermal Enthalpies=            -418.870943
 Sum of electronic and thermal Free Energies=         -418.920622

                     E (Thermal)             CV                S
                      KCal/Mol        Cal/Mol-Kelvin    Cal/Mol-Kelvin
 Total                  150.355             41.726            104.559
 Electronic               0.000              0.000              0.000
 Translational            0.889              2.981             40.549
 Rotational               0.889              2.981             29.639
 Vibrational            148.578             35.764             34.372
 Vibration     1          0.594              1.982              5.350
 Vibration     2          0.597              1.974              4.477
 Vibration     3          0.599              1.967              4.085
 Vibration     4          0.606              1.943              3.311
 Vibration     5          0.652              1.796              1.881
 Vibration     6          0.661              1.766              1.746
 Vibration     7          0.663              1.763              1.733
 Vibration     8          0.676              1.722              1.574
 Vibration     9          0.694              1.668              1.401
 Vibration    10          0.716              1.606              1.236
 Vibration    11          0.725              1.581              1.179
 Vibration    12          0.749              1.514              1.042
 Vibration    13          0.791              1.406              0.860
 Vibration    14          0.826              1.318              0.739
 Vibration    15          0.861              1.238              0.644
 Vibration    16          0.893              1.166              0.569
 Vibration    17          0.932              1.084              0.493

                           ! Non-Optimized Parameters !
 Normal termination of Gaussian 16 at Tue Jun  1 12:03:40 2021.
