 Gaussian 16, Revision A.03,
 Gaussian 16:  ES64L-G16RevA.03 25-Dec-2016

 -----------------------------
 # opt freq b3lyp/6-31g(2df,p)
 -----------------------------

 -------------------
 Title Card Required
 -------------------
 Symbolic Z-matrix:
 Charge =  0 Multiplicity = 1

 SCF Done:  E(RB3LYP) =  -495.342927847     A.U. after   14 cycles
 SCF Done:  E(RB3LYP) =  -495.374036243     A.U. after   12 cycles
 SCF Done:  E(RB3LYP) =  -495.375088585     A.U. after   12 cycles
 SCF Done:  E(RB3LYP) =  -495.378298070     A.U. after   13 cycles
 SCF Done:  E(RB3LYP) =  -495.378844131     A.U. after   11 cycles
 SCF Done:  E(RB3LYP) =  -495.379494435     A.U. after   11 cycles
 SCF Done:  E(RB3LYP) =  -495.379587461     A.U. after   10 cycles
 SCF Done:  E(RB3LYP) =  -495.379633703     A.U. after   10 cycles
 SCF Done:  E(RB3LYP) =  -495.379684965     A.U. after   10 cycles
 SCF Done:  E(RB3LYP) =  -495.379809118     A.U. after   11 cycles
 SCF Done:  E(RB3LYP) =  -495.386671452     A.U. after   11 cycles
 SCF Done:  E(RB3LYP) =  -495.386761965     A.U. after   10 cycles
 SCF Done:  E(RB3LYP) =  -495.386363643     A.U. after   11 cycles
 SCF Done:  E(RB3LYP) =  -495.386789716     A.U. after   10 cycles
 SCF Done:  E(RB3LYP) =  -495.386865841     A.U. after   10 cycles
 SCF Done:  E(RB3LYP) =  -495.386867056     A.U. after    9 cycles
 SCF Done:  E(RB3LYP) =  -495.386867933     A.U. after    8 cycles
 SCF Done:  E(RB3LYP) =  -495.386868067     A.U. after    6 cycles
 SCF Done:  E(RB3LYP) =  -495.386868143     A.U. after    6 cycles
 Optimization completed.
    -- Stationary point found.
 Normal termination of Gaussian 16 at Tue Jun  1 13:31:38 2021.

 ----------------------------------------------------------------------
 #N Geom=AllCheck Guess=TCheck SCRF=Check GenChk RB3LYP/6-31G(2df,p) Fr
 eq
 ----------------------------------------------------------------------

 Structure from the checkpoint file:  "CCNCNCpCNpCCtN.chk"
 -------------------
 Title Card Required
 -------------------
 Charge =  0 Multiplicity = 1

                         Standard orientation:
 ---------------------------------------------------------------------
 Center     Atomic      Atomic             Coordinates (Angstroms)
 Number     Number       Type             X           Y           Z
 ---------------------------------------------------------------------
      1          6           0       -4.080157    0.440810   -1.222189
      2          6           0       -3.386810   -0.227885   -0.038200
      3          7           0       -1.940942   -0.280265   -0.242027
      4          6           0       -1.218898   -0.867789    0.882467
      5          7           0        0.138317   -1.298434    0.565368
      6          6           0        1.077436   -0.291833    0.060298
      7          6           0        1.179800    0.935845    0.981333
      8          7           0        0.141220    1.926612    0.656707
      9          6           0        2.445538   -1.007021   -0.059688
     10          6           0        3.463101   -0.186918   -0.712037
     11          7           0        4.252062    0.480919   -1.229490
     12          1           0       -5.166482    0.441525   -1.090292
     13          1           0       -3.840121   -0.081657   -2.152798
     14          1           0       -3.757874    1.482979   -1.328946
     15          1           0       -3.752017   -1.258370    0.067786
     16          1           0       -3.670952    0.295828    0.894740
     17          1           0       -1.592280    0.671302   -0.345667
     18          1           0       -1.763316   -1.763838    1.203003
     19          1           0       -1.173540   -0.194510    1.751916
     20          1           0        0.060246   -2.025967   -0.140497
     21          1           0        0.803845    0.074639   -0.943948
     22          1           0        2.194907    1.351794    0.907249
     23          1           0        1.040977    0.607105    2.016779
     24          1           0        0.426976    2.458548   -0.160481
     25          1           0        0.054127    2.598672    1.412340
     26          1           0        2.327311   -1.932525   -0.634225
     27          1           0        2.793529   -1.298604    0.937241
 ---------------------------------------------------------------------

 SCF Done:  E(RB3LYP) =  -495.386868143     A.U. after    1 cycles

 The electronic state is 1-A.
 Alpha  occ. eigenvalues --  -14.32854 -14.32579 -14.31861 -14.29774 -10.23090
 Alpha  occ. eigenvalues --  -10.23070 -10.22293 -10.21922 -10.21906 -10.19997
 Alpha  occ. eigenvalues --  -10.17066  -0.93215  -0.90047  -0.89245  -0.86948
 Alpha  occ. eigenvalues --   -0.79105  -0.73151  -0.70013  -0.64776  -0.60165
 Alpha  occ. eigenvalues --   -0.57879  -0.52987  -0.51293  -0.49401  -0.48541
 Alpha  occ. eigenvalues --   -0.46429  -0.45486  -0.43832  -0.43441  -0.41111
 Alpha  occ. eigenvalues --   -0.40118  -0.38803  -0.37174  -0.36499  -0.35807
 Alpha  occ. eigenvalues --   -0.35069  -0.34666  -0.34039  -0.32213  -0.32047
 Alpha  occ. eigenvalues --   -0.25843  -0.23533  -0.21771
 Alpha virt. eigenvalues --    0.03263   0.04105   0.06655   0.08229   0.10325
 Alpha virt. eigenvalues --    0.10757   0.11461   0.13206   0.13446   0.14797
 Alpha virt. eigenvalues --    0.15248   0.15702   0.16929   0.17277   0.17915

 Mulliken charges:
               1
     1  C   -0.383502
     2  C   -0.098343
     3  N   -0.301291
     4  C   -0.110050
     5  N   -0.307577
     6  C    0.066604
     7  C   -0.180767
     8  N   -0.508867
     9  C   -0.354394
    10  C    0.256101
    11  N   -0.314904
    12  H    0.110991
    13  H    0.122967
    14  H    0.111582
    15  H    0.095595
    16  H    0.074085
    17  H    0.220927
    18  H    0.098942
    19  H    0.091357
    20  H    0.214175
    21  H    0.085047
    22  H    0.112155
    23  H    0.120527
    24  H    0.238648
    25  H    0.235903
    26  H    0.146922
    27  H    0.157165
 Sum of Mulliken charges =  -0.00000

 Dipole moment (field-independent basis, Debye):
    X=             -2.3913    Y=              0.0093    Z=              1.8894  Tot=              3.0477
 Quadrupole moment (field-independent basis, Debye-Ang):
   XX=            -86.1030   YY=            -61.5416   ZZ=            -70.1993
   XY=             -5.1652   XZ=              6.7844   YZ=              3.9900

  Exact polarizability: 127.526   3.670  94.996  -5.027  -2.670  88.101
 Approx polarizability: 154.815  12.208 142.763 -11.678  -7.822 135.609

                      1                      2                      3
                      A                      A                      A
 Frequencies --     35.1821                57.9936                79.8592
 Red. masses --      4.9669                 3.5840                 1.9195
 Frc consts  --      0.0036                 0.0071                 0.0072
 IR Inten    --      0.7820                 1.5749                 2.1481

                      4                      5                      6
                      A                      A                      A
 Frequencies --     88.3090               115.5433               134.7029
 Red. masses --      3.1912                 3.0524                 3.1753
 Frc consts  --      0.0147                 0.0240                 0.0339
 IR Inten    --      8.5604                 3.9308                 1.0195

                      7                      8                      9
                      A                      A                      A
 Frequencies --    166.7365               223.0996               246.2598
 Red. masses --      3.2306                 2.9706                 2.0587
 Frc consts  --      0.0529                 0.0871                 0.0736
 IR Inten    --      1.7831                 0.4242                 2.8307

                     10                     11                     12
                      A                      A                      A
 Frequencies --    248.0947               261.9107               283.4203
 Red. masses --      1.3144                 1.2485                 2.7997
 Frc consts  --      0.0477                 0.0505                 0.1325
 IR Inten    --     14.2224                 4.6562                 2.6410

                     13                     14                     15
                      A                      A                      A
 Frequencies --    305.4365               398.7555               420.2843
 Red. masses --      2.5805                 3.4339                 3.9924
 Frc consts  --      0.1418                 0.3217                 0.4155
 IR Inten    --      1.8074                 1.5770                 2.6459

                     16                     17                     18
                      A                      A                      A
 Frequencies --    437.7250               463.1506               533.3857
 Red. masses --      2.4539                 2.9837                 3.7384
 Frc consts  --      0.2770                 0.3771                 0.6266
 IR Inten    --     20.0952                 2.8999                 3.6792

                     19                     20                     21
                      A                      A                      A
 Frequencies --    604.5757               777.4900               810.1201
 Red. masses --      3.4613                 1.5755                 1.5843
 Frc consts  --      0.7454                 0.5611                 0.6126
 IR Inten    --      7.0553                89.2229                 4.1456

                     22                     23                     24
                      A                      A                      A
 Frequencies --    816.5687               859.1303               865.1126
 Red. masses --      1.2066                 1.5609                 1.5418
 Frc consts  --      0.4740                 0.6788                 0.6799
 IR Inten    --      3.7883                65.4284                16.1082

                     25                     26                     27
                      A                      A                      A
 Frequencies --    904.8643               947.5977               958.9587
 Red. masses --      1.7866                 1.9144                 2.4298
 Frc consts  --      0.8619                 1.0128                 1.3165
 IR Inten    --     58.5337                 8.3492                15.3845

                     28                     29                     30
                      A                      A                      A
 Frequencies --    995.7858              1025.8327              1035.6272
 Red. masses --      1.7497                 2.3790                 2.4607
 Frc consts  --      1.0222                 1.4750                 1.5550
 IR Inten    --     25.2384                17.4622                 8.4162

                     31                     32                     33
                      A                      A                      A
 Frequencies --   1064.3939              1078.9849              1118.8997
 Red. masses --      2.5418                 2.3315                 1.8977
 Frc consts  --      1.6966                 1.5993                 1.3998
 IR Inten    --     10.7704                 7.8418                10.2633

                     34                     35                     36
                      A                      A                      A
 Frequencies --   1125.4210              1141.4738              1149.9169
 Red. masses --      2.9239                 2.2422                 1.5441
 Frc consts  --      2.1820                 1.7213                 1.2030
 IR Inten    --     89.7012                 4.4157                20.7756

                     37                     38                     39
                      A                      A                      A
 Frequencies --   1193.0007              1223.3017              1243.8744
 Red. masses --      2.4387                 1.4167                 1.5416
 Frc consts  --      2.0450                 1.2491                 1.4053
 IR Inten    --     71.4719                 2.3545                 1.6831

                     40                     41                     42
                      A                      A                      A
 Frequencies --   1287.0698              1298.8501              1335.5345
 Red. masses --      1.1675                 1.2736                 1.2126
 Frc consts  --      1.1395                 1.2659                 1.2744
 IR Inten    --      4.5947                 1.2411                 4.4707

                     43                     44                     45
                      A                      A                      A
 Frequencies --   1339.9926              1365.9054              1373.1315
 Red. masses --      1.1786                 1.2282                 1.2964
 Frc consts  --      1.2468                 1.3500                 1.4402
 IR Inten    --      6.1984                46.6271                 2.6490

                     46                     47                     48
                      A                      A                      A
 Frequencies --   1386.7708              1404.9069              1423.1746
 Red. masses --      1.3621                 1.2404                 1.3922
 Frc consts  --      1.5434                 1.4425                 1.6613
 IR Inten    --      8.0113                 3.9804                 9.1460

                     49                     50                     51
                      A                      A                      A
 Frequencies --   1431.3871              1461.4350              1484.4361
 Red. masses --      1.3597                 1.0886                 1.0793
 Frc consts  --      1.6414                 1.3699                 1.4013
 IR Inten    --      3.5054                 8.4838                15.5735

                     52                     53                     54
                      A                      A                      A
 Frequencies --   1492.1298              1498.1317              1505.5492
 Red. masses --      1.0785                 1.0399                 1.0892
 Frc consts  --      1.4147                 1.3751                 1.4546
 IR Inten    --      1.3046                 9.7028                 5.7390

                     55                     56                     57
                      A                      A                      A
 Frequencies --   1509.3877              1522.4468              1533.3654
 Red. masses --      1.1414                 1.0983                 1.2304
 Frc consts  --      1.5322                 1.4999                 1.7045
 IR Inten    --     37.5869                 8.1354                42.0067

                     58                     59                     60
                      A                      A                      A
 Frequencies --   1658.2880              2359.1029              2914.4911
 Red. masses --      1.0880                12.6109                 1.0733
 Frc consts  --      1.7628                41.3513                 5.3713
 IR Inten    --     25.3170                10.4065                82.2459

                     61                     62                     63
                      A                      A                      A
 Frequencies --   2951.1189              2985.9574              2995.9963
 Red. masses --      1.0816                 1.0672                 1.0686
 Frc consts  --      5.5501                 5.6062                 5.6513
 IR Inten    --     35.8554                58.3438                50.8355

                     64                     65                     66
                      A                      A                      A
 Frequencies --   3022.6130              3033.0385              3047.0348
 Red. masses --      1.0843                 1.0374                 1.0589
 Frc consts  --      5.8367                 5.6225                 5.7925
 IR Inten    --     23.0147                28.0115                 6.3072

                     67                     68                     69
                      A                      A                      A
 Frequencies --   3053.1486              3074.5693              3087.9111
 Red. masses --      1.0940                 1.0941                 1.1018
 Frc consts  --      6.0086                 6.0935                 6.1897
 IR Inten    --     44.8767                18.9801                 4.8666

                     70                     71                     72
                      A                      A                      A
 Frequencies --   3098.1504              3115.5714              3470.8592
 Red. masses --      1.0997                 1.1022                 1.0727
 Frc consts  --      6.2193                 6.3035                 7.6141
 IR Inten    --     41.7655                29.5130                30.2837

                     73                     74                     75
                      A                      A                      A
 Frequencies --   3494.3301              3494.8350              3571.8676
 Red. masses --      1.0688                 1.0539                 1.0921
 Frc consts  --      7.6894                 7.5843                 8.2095
 IR Inten    --      0.6635                 0.4408                 2.4860

 - Thermochemistry -
 -------------------
 Temperature   298.150 Kelvin.  Pressure   1.00000 Atm.
 Atom     1 has atomic number  6 and mass  12.00000

 Molecular mass:   156.13750 amu.
 Principal axes and moments of inertia in atomic units:
                           1         2         3
     Eigenvalues --   885.455703990.185334165.07910
           X            0.99983  -0.00631   0.01715
           Y            0.00593   0.99974   0.02208
           Z           -0.01728  -0.02197   0.99961
 This molecule is an asymmetric top.
 Rotational symmetry number  1.
 Warning -- assumption of classical behavior for rotation
           may cause significant error
 Rotational temperatures (Kelvin)      0.09782     0.02171     0.02080
 Rotational constants (GHZ):           2.03821     0.45230     0.43330
 Zero-point vibrational energy     631169.3 (Joules/Mol)
                                  150.85309 (Kcal/Mol)
 Warning -- explicit consideration of  19 degrees of freedom as
           vibrations may cause significant error
 Vibrational temperatures:     50.62    83.44   114.90   127.06   166.24
          (Kelvin)            193.81   239.90   320.99   354.31   356.95
                              376.83   407.78   439.45   573.72   604.70
                              629.79   666.37   767.42   869.85  1118.63
                             1165.58  1174.86  1236.10  1244.70  1301.90
                             1363.38  1379.73  1432.71  1475.94  1490.04
                             1531.43  1552.42  1609.85  1619.23  1642.33
                             1654.47  1716.46  1760.06  1789.66  1851.81
                             1868.76  1921.54  1927.95  1965.23  1975.63
                             1995.25  2021.35  2047.63  2059.45  2102.68
                             2135.77  2146.84  2155.48  2166.15  2171.67
                             2190.46  2206.17  2385.91  3394.22  4193.30
                             4246.00  4296.13  4310.57  4348.87  4363.87
                             4384.00  4392.80  4423.62  4442.82  4457.55
                             4482.61  4993.79  5027.56  5028.29  5139.12

 Zero-point correction=                           0.240400 (Hartree/Particle)
 Thermal correction to Energy=                    0.253677
 Thermal correction to Enthalpy=                  0.254622
 Thermal correction to Gibbs Free Energy=         0.199948
 Sum of electronic and zero-point Energies=           -495.146468
 Sum of electronic and thermal Energies=              -495.133191
 Sum of electronic and thermal Enthalpies=            -495.132246
 Sum of electronic and thermal Free Energies=         -495.186920

                     E (Thermal)             CV                S
                      KCal/Mol        Cal/Mol-Kelvin    Cal/Mol-Kelvin
 Total                  159.185             47.377            115.071
 Electronic               0.000              0.000              0.000
 Translational            0.889              2.981             41.046
 Rotational               0.889              2.981             31.065
 Vibrational            157.408             41.416             42.960
 Vibration     1          0.594              1.982              5.513
 Vibration     2          0.596              1.974              4.524
 Vibration     3          0.600              1.963              3.894
 Vibration     4          0.601              1.957              3.697
 Vibration     5          0.608              1.937              3.174
 Vibration     6          0.613              1.919              2.878
 Vibration     7          0.624              1.883              2.472
 Vibration     8          0.649              1.806              1.934
 Vibration     9          0.661              1.769              1.757
 Vibration    10          0.662              1.766              1.744
 Vibration    11          0.669              1.743              1.649
 Vibration    12          0.682              1.704              1.513
 Vibration    13          0.696              1.663              1.387
 Vibration    14          0.765              1.473              0.967
 Vibration    15          0.783              1.426              0.891
 Vibration    16          0.798              1.388              0.834
 Vibration    17          0.821              1.332              0.757
 Vibration    18          0.888              1.176              0.580
 Vibration    19          0.963              1.022              0.442

 Optimization completed.
    -- Stationary point found.
 Normal termination of Gaussian 16 at Tue Jun  1 14:21:28 2021.
