 Gaussian 16, Revision A.03,
 Gaussian 16:  ES64L-G16RevA.03 25-Dec-2016

 -----------------------------
 # opt freq b3lyp/6-31g(2df,p)
 -----------------------------

 -------------------
 Title Card Required
 -------------------
 Symbolic Z-matrix:
 Charge =  0 Multiplicity = 1

 SCF Done:  E(RB3LYP) =  -398.243138626     A.U. after   15 cycles
 SCF Done:  E(RB3LYP) =  -398.288961275     A.U. after   12 cycles
 SCF Done:  E(RB3LYP) =  -398.290541670     A.U. after   12 cycles
 SCF Done:  E(RB3LYP) =  -398.290726745     A.U. after   11 cycles
 SCF Done:  E(RB3LYP) =  -398.290740708     A.U. after   10 cycles
 SCF Done:  E(RB3LYP) =  -398.290750337     A.U. after    9 cycles
 SCF Done:  E(RB3LYP) =  -398.290751869     A.U. after    9 cycles
 SCF Done:  E(RB3LYP) =  -398.290752370     A.U. after    8 cycles
 Optimization completed.
    -- Stationary point found.
 Normal termination of Gaussian 16 at Tue Jun  1 15:26:19 2021.

 ----------------------------------------------------------------------
 #N Geom=AllCheck Guess=TCheck SCRF=Check GenChk RB3LYP/6-31G(2df,p) Fr
 eq
 ----------------------------------------------------------------------

 Structure from the checkpoint file:  "CCNCpCtNpCCtN.chk"
 -------------------
 Title Card Required
 -------------------
 Charge =  0 Multiplicity = 1

                         Standard orientation:
 ---------------------------------------------------------------------
 Center     Atomic      Atomic             Coordinates (Angstroms)
 Number     Number       Type             X           Y           Z
 ---------------------------------------------------------------------
      1          6           0        3.547781   -0.509393   -0.082168
      2          6           0        2.238259    0.074390    0.436208
      3          7           0        1.096675   -0.550282   -0.242253
      4          6           0       -0.208209   -0.108552    0.233885
      5          6           0       -0.383624    1.327490   -0.047278
      6          7           0       -0.520770    2.453958   -0.261121
      7          6           0       -1.303569   -0.931478   -0.492687
      8          6           0       -2.649430   -0.655193   -0.000794
      9          7           0       -3.710915   -0.445688    0.403014
     10          1           0        4.399981   -0.023146    0.400164
     11          1           0        3.631542   -0.369398   -1.163231
     12          1           0        3.616069   -1.582975    0.129148
     13          1           0        2.201656    1.149370    0.229889
     14          1           0        2.181053   -0.040403    1.533469
     15          1           0        1.151626   -1.558089   -0.123571
     16          1           0       -0.344987   -0.234290    1.323517
     17          1           0       -1.091134   -1.996085   -0.342860
     18          1           0       -1.247980   -0.734487   -1.567000
 ---------------------------------------------------------------------

 SCF Done:  E(RB3LYP) =  -398.290752370     A.U. after    1 cycles

 The electronic state is 1-A.
 Alpha  occ. eigenvalues --  -14.35456 -14.34386 -14.34206 -10.28988 -10.26236
 Alpha  occ. eigenvalues --  -10.23458 -10.23225 -10.23014 -10.19464  -0.95702
 Alpha  occ. eigenvalues --   -0.91479  -0.91017  -0.82796  -0.75844  -0.70600
 Alpha  occ. eigenvalues --   -0.63752  -0.55228  -0.55005  -0.51031  -0.48052
 Alpha  occ. eigenvalues --   -0.47499  -0.45243  -0.43851  -0.39212  -0.38564
 Alpha  occ. eigenvalues --   -0.37248  -0.36915  -0.36779  -0.34790  -0.34479
 Alpha  occ. eigenvalues --   -0.33791  -0.33180  -0.26485
 Alpha virt. eigenvalues --    0.00842   0.01199   0.01606   0.02742   0.07784
 Alpha virt. eigenvalues --    0.09173   0.09522   0.10582   0.14003   0.14325
 Alpha virt. eigenvalues --    0.14654   0.15451   0.17417   0.18130   0.19334

 Mulliken charges:
               1
     1  C   -0.393802
     2  C   -0.127784
     3  N   -0.302007
     4  C   -0.101865
     5  C    0.320333
     6  N   -0.316274
     7  C   -0.359326
     8  C    0.267259
     9  N   -0.289190
    10  H    0.128579
    11  H    0.136926
    12  H    0.114790
    13  H    0.140430
    14  H    0.090112
    15  H    0.223778
    16  H    0.127891
    17  H    0.156852
    18  H    0.183296
 Sum of Mulliken charges =   0.00000

 Dipole moment (field-independent basis, Debye):
    X=              4.3822    Y=             -4.2585    Z=              0.1878  Tot=              6.1134
 Quadrupole moment (field-independent basis, Debye-Ang):
   XX=            -66.7421   YY=            -58.5701   ZZ=            -52.8609
   XY=              1.4977   XZ=              4.6093   YZ=              1.6218

  Exact polarizability:  97.505  -2.736  76.412  -2.977  -0.260  59.470
 Approx polarizability: 125.736  -7.885 122.565  -9.010  -2.069  93.323

                      1                      2                      3
                      A                      A                      A
 Frequencies --     55.6222                80.3887                92.7387
 Red. masses --      4.5681                 1.8352                 5.8460
 Frc consts  --      0.0083                 0.0070                 0.0296
 IR Inten    --      4.4827                 1.7779                 4.8258

                      4                      5                      6
                      A                      A                      A
 Frequencies --    112.9038               162.7320               222.9445
 Red. masses --      3.7672                 3.7687                 4.7369
 Frc consts  --      0.0283                 0.0588                 0.1387
 IR Inten    --      4.4101                 2.8157                 7.6529

                      7                      8                      9
                      A                      A                      A
 Frequencies --    250.8901               265.8073               367.5043
 Red. masses --      1.4849                 2.3387                 4.8314
 Frc consts  --      0.0551                 0.0974                 0.3845
 IR Inten    --      1.2992                 0.8527                 3.4785

                     10                     11                     12
                      A                      A                      A
 Frequencies --    390.7536               393.5578               491.4315
 Red. masses --      3.7774                 3.5579                 8.6167
 Frc consts  --      0.3398                 0.3247                 1.2261
 IR Inten    --      1.0623                 0.1563                 1.4262

                     13                     14                     15
                      A                      A                      A
 Frequencies --    577.4048               633.8053               759.0026
 Red. masses --      3.9767                 3.2760                 1.7172
 Frc consts  --      0.7811                 0.7754                 0.5828
 IR Inten    --      4.2026                17.4645                46.9656

                     16                     17                     18
                      A                      A                      A
 Frequencies --    810.5926               834.2020               903.5101
 Red. masses --      1.5856                 1.6274                 2.0230
 Frc consts  --      0.6138                 0.6672                 0.9730
 IR Inten    --      5.3732                 7.3952                 0.7599

                     19                     20                     21
                      A                      A                      A
 Frequencies --    967.5422              1000.8872              1047.0965
 Red. masses --      3.0132                 2.3548                 2.7932
 Frc consts  --      1.6619                 1.3899                 1.8044
 IR Inten    --      2.7719                10.2425                 0.2834

                     22                     23                     24
                      A                      A                      A
 Frequencies --   1056.5274              1141.6587              1150.6685
 Red. masses --      2.8078                 2.6137                 2.1730
 Frc consts  --      1.8466                 2.0072                 1.6951
 IR Inten    --      3.3528                26.5291                28.2694

                     25                     26                     27
                      A                      A                      A
 Frequencies --   1188.1949              1215.3975              1294.0755
 Red. masses --      1.8268                 1.2174                 1.1678
 Frc consts  --      1.5195                 1.0596                 1.1522
 IR Inten    --     20.4627                 5.6921                25.0513

                     28                     29                     30
                      A                      A                      A
 Frequencies --   1300.1340              1348.2168              1373.2517
 Red. masses --      1.1948                 1.3418                 1.3979
 Frc consts  --      1.1900                 1.4370                 1.5532
 IR Inten    --      0.8650                 5.7423                18.6056

                     31                     32                     33
                      A                      A                      A
 Frequencies --   1392.1252              1416.8352              1463.6614
 Red. masses --      1.3022                 1.3129                 1.0859
 Frc consts  --      1.4869                 1.5528                 1.3706
 IR Inten    --      2.1786                 4.5719                 5.9626

                     34                     35                     36
                      A                      A                      A
 Frequencies --   1486.0333              1497.8751              1506.9841
 Red. masses --      1.0939                 1.0388                 1.1816
 Frc consts  --      1.4233                 1.3731                 1.5811
 IR Inten    --      4.8888                 4.4680                16.2553

                     37                     38                     39
                      A                      A                      A
 Frequencies --   1525.4834              2366.8776              2371.0593
 Red. masses --      1.0968                12.6575                12.6144
 Frc consts  --      1.5038                41.7782                41.7831
 IR Inten    --      8.8147                 0.2600                 4.4341

                     40                     41                     42
                      A                      A                      A
 Frequencies --   2936.9416              2944.4035              3035.2904
 Red. masses --      1.0801                 1.0729                 1.0397
 Frc consts  --      5.4889                 5.4804                 5.6438
 IR Inten    --     28.2964                62.0890                19.0132

                     43                     44                     45
                      A                      A                      A
 Frequencies --   3051.5757              3068.2937              3105.4620
 Red. masses --      1.0618                 1.0861                 1.0975
 Frc consts  --      5.8256                 6.0241                 6.2362
 IR Inten    --      4.8756                 7.7787                29.9294

                     46                     47                     48
                      A                      A                      A
 Frequencies --   3106.6688              3127.1185              3504.8103
 Red. masses --      1.0994                 1.1026                 1.0736
 Frc consts  --      6.2515                 6.3525                 7.7698
 IR Inten    --      0.4339                19.0827                 0.8525

 - Thermochemistry -
 -------------------
 Temperature   298.150 Kelvin.  Pressure   1.00000 Atm.
 Atom     1 has atomic number  6 and mass  12.00000

 Molecular mass:   123.07965 amu.
 Principal axes and moments of inertia in atomic units:
                           1         2         3
     Eigenvalues --   573.137512171.551212614.04907
           X            0.99994  -0.00894   0.00620
           Y            0.00884   0.99982   0.01677
           Z           -0.00635  -0.01672   0.99984
 This molecule is an asymmetric top.
 Rotational symmetry number  1.
 Warning -- assumption of classical behavior for rotation
           may cause significant error
 Rotational temperatures (Kelvin)      0.15112     0.03989     0.03313
 Rotational constants (GHZ):           3.14888     0.83108     0.69040
 Zero-point vibrational energy     385179.2 (Joules/Mol)
                                   92.06005 (Kcal/Mol)
 Warning -- explicit consideration of  13 degrees of freedom as
           vibrations may cause significant error
 Vibrational temperatures:     80.03   115.66   133.43   162.44   234.14
          (Kelvin)            320.77   360.97   382.44   528.76   562.21
                              566.24   707.06   830.76   911.90  1092.04
                             1166.26  1200.23  1299.95  1392.08  1440.05
                             1506.54  1520.11  1642.59  1655.56  1709.55
                             1748.69  1861.89  1870.60  1939.78  1975.80
                             2002.96  2038.51  2105.88  2138.07  2155.11
                             2168.21  2194.83  3405.41  3411.43  4225.60
                             4236.34  4367.11  4390.54  4414.59  4468.07
                             4469.80  4499.23  5042.64

 Zero-point correction=                           0.146707 (Hartree/Particle)
 Thermal correction to Energy=                    0.156796
 Thermal correction to Enthalpy=                  0.157740
 Thermal correction to Gibbs Free Energy=         0.110635
 Sum of electronic and zero-point Energies=           -398.144045
 Sum of electronic and thermal Energies=              -398.133956
 Sum of electronic and thermal Enthalpies=            -398.133012
 Sum of electronic and thermal Free Energies=         -398.180118

                     E (Thermal)             CV                S
                      KCal/Mol        Cal/Mol-Kelvin    Cal/Mol-Kelvin
 Total                   98.391             34.721             99.142
 Electronic               0.000              0.000              0.000
 Translational            0.889              2.981             40.337
 Rotational               0.889              2.981             29.566
 Vibrational             96.614             28.760             29.239
 Vibration     1          0.596              1.975              4.607
 Vibration     2          0.600              1.962              3.881
 Vibration     3          0.602              1.954              3.601
 Vibration     4          0.607              1.939              3.218
 Vibration     5          0.623              1.888              2.518
 Vibration     6          0.649              1.806              1.935
 Vibration     7          0.663              1.761              1.724
 Vibration     8          0.672              1.736              1.623
 Vibration     9          0.740              1.539              1.090
 Vibration    10          0.758              1.490              0.997
 Vibration    11          0.761              1.484              0.987
 Vibration    12          0.847              1.269              0.680
 Vibration    13          0.934              1.080              0.490

                           ! Non-Optimized Parameters !
 Normal termination of Gaussian 16 at Tue Jun  1 16:01:39 2021.
