 Gaussian 16, Revision A.03,
 Gaussian 16:  ES64L-G16RevA.03 25-Dec-2016

 -----------------------------
 # opt freq b3lyp/6-31g(2df,p)
 -----------------------------

 -------------------
 Title Card Required
 -------------------
 Symbolic Z-matrix:
 Charge =  0 Multiplicity = 1

 SCF Done:  E(RB3LYP) =  -479.314440856     A.U. after   14 cycles
 SCF Done:  E(RB3LYP) =  -479.342213423     A.U. after   13 cycles
 SCF Done:  E(RB3LYP) =  -479.343535122     A.U. after   12 cycles
 SCF Done:  E(RB3LYP) =  -479.349975036     A.U. after   12 cycles
 SCF Done:  E(RB3LYP) =  -479.350809519     A.U. after   11 cycles
 SCF Done:  E(RB3LYP) =  -479.351194761     A.U. after   11 cycles
 SCF Done:  E(RB3LYP) =  -479.351232619     A.U. after   10 cycles
 SCF Done:  E(RB3LYP) =  -479.351255439     A.U. after    9 cycles
 SCF Done:  E(RB3LYP) =  -479.351261844     A.U. after    8 cycles
 SCF Done:  E(RB3LYP) =  -479.351263174     A.U. after    8 cycles
 SCF Done:  E(RB3LYP) =  -479.351263390     A.U. after    7 cycles
 SCF Done:  E(RB3LYP) =  -479.351263537     A.U. after    7 cycles
 SCF Done:  E(RB3LYP) =  -479.351263580     A.U. after    7 cycles
 SCF Done:  E(RB3LYP) =  -479.351263588     A.U. after    6 cycles
 SCF Done:  E(RB3LYP) =  -479.351263595     A.U. after    6 cycles
 SCF Done:  E(RB3LYP) =  -479.351263601     A.U. after    6 cycles
 Optimization completed.
    -- Stationary point found.
 Normal termination of Gaussian 16 at Mon May 31 19:56:12 2021.

 ----------------------------------------------------------------------
 #N Geom=AllCheck Guess=TCheck SCRF=Check GenChk RB3LYP/6-31G(2df,p) Fr
 eq
 ----------------------------------------------------------------------

 Structure from the checkpoint file:  "CCNCCpCCtNpNCC.chk"
 -------------------
 Title Card Required
 -------------------
 Charge =  0 Multiplicity = 1

                         Standard orientation:
 ---------------------------------------------------------------------
 Center     Atomic      Atomic             Coordinates (Angstroms)
 Number     Number       Type             X           Y           Z
 ---------------------------------------------------------------------
      1          6           0       -4.119115   -1.080239   -0.475245
      2          6           0       -2.843380   -1.325144    0.324981
      3          7           0       -1.729267   -0.557529   -0.222751
      4          6           0       -0.492507   -0.731045    0.523477
      5          6           0        0.680116    0.060902   -0.083539
      6          6           0        0.711361    1.534148    0.409123
      7          6           0       -0.470782    2.316242    0.061319
      8          7           0       -1.414672    2.925995   -0.212128
      9          7           0        1.944135   -0.556345    0.315391
     10          6           0        3.100510   -0.220478   -0.515212
     11          6           0        4.311135   -1.059251   -0.115994
     12          1           0       -4.944665   -1.682082   -0.083912
     13          1           0       -3.967976   -1.334777   -1.528132
     14          1           0       -4.419546   -0.027776   -0.422283
     15          1           0       -2.573851   -2.389198    0.277520
     16          1           0       -3.027115   -1.102811    1.393785
     17          1           0       -1.988323    0.423775   -0.254365
     18          1           0       -0.238980   -1.799755    0.481340
     19          1           0       -0.581413   -0.484453    1.599685
     20          1           0        0.542323    0.064912   -1.178432
     21          1           0        1.583142    2.047202   -0.008629
     22          1           0        0.833540    1.532667    1.497679
     23          1           0        1.827374   -1.564370    0.307022
     24          1           0        3.342172    0.840647   -0.377628
     25          1           0        2.891228   -0.353110   -1.592925
     26          1           0        4.551300   -0.912259    0.940852
     27          1           0        5.185289   -0.787212   -0.714147
     28          1           0        4.120096   -2.127064   -0.274471
 ---------------------------------------------------------------------

 SCF Done:  E(RB3LYP) =  -479.351263601     A.U. after    1 cycles

 The electronic state is 1-A.
 Alpha  occ. eigenvalues --  -14.32941 -14.32506 -14.30898 -10.23161 -10.23045
 Alpha  occ. eigenvalues --  -10.22358 -10.21678 -10.21285 -10.20275 -10.18506
 Alpha  occ. eigenvalues --  -10.17033  -0.92679  -0.90334  -0.89713  -0.79939
 Alpha  occ. eigenvalues --   -0.74998  -0.73946  -0.68096  -0.61600  -0.60577
 Alpha  occ. eigenvalues --   -0.60116  -0.52968  -0.50183  -0.48086  -0.46497
 Alpha  occ. eigenvalues --   -0.45999  -0.44764  -0.44312  -0.42567  -0.41688
 Alpha  occ. eigenvalues --   -0.39063  -0.38078  -0.37751  -0.36844  -0.35921
 Alpha  occ. eigenvalues --   -0.35805  -0.35558  -0.34188  -0.33557  -0.32206
 Alpha  occ. eigenvalues --   -0.31719  -0.23942  -0.22005
 Alpha virt. eigenvalues --    0.03050   0.03684   0.07395   0.09030   0.09460
 Alpha virt. eigenvalues --    0.10536   0.11781   0.12661   0.13407   0.13749
 Alpha virt. eigenvalues --    0.15444   0.16029   0.16186   0.17031   0.17452

 Mulliken charges:
               1
     1  C   -0.391655
     2  C   -0.099286
     3  N   -0.304908
     4  C   -0.157880
     5  C    0.028411
     6  C   -0.333544
     7  C    0.272571
     8  N   -0.322361
     9  N   -0.307283
    10  C   -0.113603
    11  C   -0.393172
    12  H    0.112740
    13  H    0.125648
    14  H    0.124044
    15  H    0.096450
    16  H    0.076746
    17  H    0.237232
    18  H    0.093948
    19  H    0.085098
    20  H    0.086672
    21  H    0.151131
    22  H    0.158669
    23  H    0.217204
    24  H    0.104928
    25  H    0.086139
    26  H    0.129676
    27  H    0.120837
    28  H    0.115549
 Sum of Mulliken charges =   0.00000

 Dipole moment (field-independent basis, Debye):
    X=              2.7988    Y=             -2.3730    Z=              0.6860  Tot=              3.7329
 Quadrupole moment (field-independent basis, Debye-Ang):
   XX=            -67.4887   YY=            -75.3373   ZZ=            -70.7263
   XY=              6.8270   XZ=             -3.4645   YZ=              1.5335

  Exact polarizability: 133.543  -6.351 103.463   1.325  -2.685  85.377
 Approx polarizability: 163.745 -13.890 148.863   5.363  -6.230 133.697

                      1                      2                      3
                      A                      A                      A
 Frequencies --     34.6926                53.9280                58.0326
 Red. masses --      2.2645                 2.6587                 2.0776
 Frc consts  --      0.0016                 0.0046                 0.0041
 IR Inten    --      3.0034                 5.0266                 0.9114

                      4                      5                      6
                      A                      A                      A
 Frequencies --     69.7870                87.3908               115.9519
 Red. masses --      2.3124                 3.3308                 2.9526
 Frc consts  --      0.0066                 0.0150                 0.0234
 IR Inten    --      1.4761                 0.7472                 0.8996

                      7                      8                      9
                      A                      A                      A
 Frequencies --    141.7170               161.6340               202.7189
 Red. masses --      2.6622                 4.8500                 2.9692
 Frc consts  --      0.0315                 0.0747                 0.0719
 IR Inten    --      1.8536                 8.0758                 0.6178

                     10                     11                     12
                      A                      A                      A
 Frequencies --    252.6172               254.6071               298.6224
 Red. masses --      1.1490                 1.1517                 3.6365
 Frc consts  --      0.0432                 0.0440                 0.1911
 IR Inten    --      0.0061                 0.8298                 0.9541

                     13                     14                     15
                      A                      A                      A
 Frequencies --    304.4275               356.2588               394.3412
 Red. masses --      3.5992                 3.0036                 2.6382
 Frc consts  --      0.1965                 0.2246                 0.2417
 IR Inten    --      0.4263                 4.3611                 0.8135

                     16                     17                     18
                      A                      A                      A
 Frequencies --    413.9012               502.3118               518.3224
 Red. masses --      3.1214                 3.9810                 2.8545
 Frc consts  --      0.3151                 0.5918                 0.4518
 IR Inten    --      3.4705                 7.2567                 0.4964

                     19                     20                     21
                      A                      A                      A
 Frequencies --    581.5956               738.0990               779.0925
 Red. masses --      3.9590                 1.4387                 1.2559
 Frc consts  --      0.7890                 0.4618                 0.4491
 IR Inten    --      0.9783                76.8222                48.7642

                     22                     23                     24
                      A                      A                      A
 Frequencies --    816.8131               821.0359               865.1408
 Red. masses --      1.1245                 1.1466                 2.1249
 Frc consts  --      0.4420                 0.4554                 0.9370
 IR Inten    --      1.4143                 0.3903                 0.1289

                     25                     26                     27
                      A                      A                      A
 Frequencies --    891.0775               924.0996               944.4699
 Red. masses --      1.6672                 1.6349                 1.7247
 Frc consts  --      0.7800                 0.8226                 0.9064
 IR Inten    --      6.6618                 3.7440                 6.0818

                     28                     29                     30
                      A                      A                      A
 Frequencies --    963.1637              1035.8147              1049.4303
 Red. masses --      3.5159                 3.4474                 2.8721
 Frc consts  --      1.9217                 2.1793                 1.8636
 IR Inten    --      1.9732                 8.9089                 0.5918

                     31                     32                     33
                      A                      A                      A
 Frequencies --   1063.2775              1090.1186              1129.0908
 Red. masses --      2.1943                 2.2286                 2.3894
 Frc consts  --      1.4617                 1.5603                 1.7947
 IR Inten    --      3.4221                 1.4415                19.5335

                     34                     35                     36
                      A                      A                      A
 Frequencies --   1142.0431              1155.9119              1163.2459
 Red. masses --      2.0752                 1.6967                 2.3576
 Frc consts  --      1.5947                 1.3357                 1.8796
 IR Inten    --     11.5174                 3.1565                19.2924

                     37                     38                     39
                      A                      A                      A
 Frequencies --   1176.2276              1199.2222              1227.6325
 Red. masses --      2.2610                 1.7174                 1.5625
 Frc consts  --      1.8431                 1.4552                 1.3874
 IR Inten    --     87.2446                 1.6774                 1.0769

                     40                     41                     42
                      A                      A                      A
 Frequencies --   1275.8482              1291.2455              1298.8826
 Red. masses --      1.2400                 1.2559                 1.1340
 Frc consts  --      1.1893                 1.2337                 1.1272
 IR Inten    --     21.8230                 0.6020                12.3345

                     43                     44                     45
                      A                      A                      A
 Frequencies --   1311.8767              1328.4236              1370.5079
 Red. masses --      1.2405                 1.2301                 1.2852
 Frc consts  --      1.2578                 1.2790                 1.4223
 IR Inten    --      8.7496                 8.3919                11.9895

                     46                     47                     48
                      A                      A                      A
 Frequencies --   1382.1915              1391.8014              1407.8111
 Red. masses --      1.3430                 1.2923                 1.2633
 Frc consts  --      1.5117                 1.4749                 1.4752
 IR Inten    --     34.5971                 5.0650                 1.8278

                     49                     50                     51
                      A                      A                      A
 Frequencies --   1414.0606              1433.0434              1460.4209
 Red. masses --      1.3188                 1.4900                 1.0913
 Frc consts  --      1.5536                 1.8028                 1.3714
 IR Inten    --      9.7687                 6.0015                 4.3063

                     52                     53                     54
                      A                      A                      A
 Frequencies --   1484.4750              1488.0791              1497.9751
 Red. masses --      1.0982                 1.0511                 1.0439
 Frc consts  --      1.4258                 1.3713                 1.3802
 IR Inten    --      1.5443                 8.5117                12.7936

                     55                     56                     57
                      A                      A                      A
 Frequencies --   1498.5078              1503.1332              1510.8556
 Red. masses --      1.0377                 1.1171                 1.1265
 Frc consts  --      1.3729                 1.4871                 1.5151
 IR Inten    --      1.8549                 2.8835                 0.1155

                     58                     59                     60
                      A                      A                      A
 Frequencies --   1523.3991              1526.3501              1526.7485
 Red. masses --      1.1548                 1.0911                 1.1133
 Frc consts  --      1.5790                 1.4976                 1.5289
 IR Inten    --     25.5813                 4.2661                31.1260

                     61                     62                     63
                      A                      A                      A
 Frequencies --   2353.3363              2908.7230              2916.8448
 Red. masses --     12.5969                 1.0722                 1.0736
 Frc consts  --     41.1038                 5.3448                 5.3815
 IR Inten    --     13.5893                21.3118               112.9780

                     64                     65                     66
                      A                      A                      A
 Frequencies --   2930.7840              2955.8609              3011.2209
 Red. masses --      1.0735                 1.0817                 1.0867
 Frc consts  --      5.4326                 5.5684                 5.8057
 IR Inten    --     60.9967                52.6444                30.2799

                     67                     68                     69
                      A                      A                      A
 Frequencies --   3020.6130              3032.3020              3036.2140
 Red. masses --      1.0847                 1.0545                 1.0363
 Frc consts  --      5.8310                 5.7126                 5.6284
 IR Inten    --     37.0473                 8.7649                22.0271

                     70                     71                     72
                      A                      A                      A
 Frequencies --   3038.0501              3053.9245              3095.9840
 Red. masses --      1.0671                 1.0586                 1.1015
 Frc consts  --      5.8027                 5.8171                 6.2205
 IR Inten    --     42.6954                 7.4376                 3.9313

                     73                     74                     75
                      A                      A                      A
 Frequencies --   3101.6998              3102.8631              3118.5392
 Red. masses --      1.0985                 1.1002                 1.1022
 Frc consts  --      6.2268                 6.2410                 6.3158
 IR Inten    --     35.2710                34.2704                26.6223

                     76                     77                     78
                      A                      A                      A
 Frequencies --   3121.5944              3516.9103              3521.0838
 Red. masses --      1.1023                 1.0737                 1.0735
 Frc consts  --      6.3288                 7.8242                 7.8419
 IR Inten    --     23.4332                 0.2182                13.3465

 - Thermochemistry -
 -------------------
 Temperature   298.150 Kelvin.  Pressure   1.00000 Atm.
 Atom     1 has atomic number  6 and mass  12.00000

 Molecular mass:   155.14225 amu.
 Principal axes and moments of inertia in atomic units:
                           1         2         3
     Eigenvalues --  1207.499893507.153234494.29821
           X            0.99989   0.01449  -0.00256
           Y           -0.01448   0.99989   0.00169
           Z            0.00259  -0.00165   1.00000
 This molecule is an asymmetric top.
 Rotational symmetry number  1.
 Warning -- assumption of classical behavior for rotation
           may cause significant error
 Rotational temperatures (Kelvin)      0.07173     0.02470     0.01927
 Rotational constants (GHZ):           1.49461     0.51459     0.40156
 Zero-point vibrational energy     656391.3 (Joules/Mol)
                                  156.88128 (Kcal/Mol)
 Warning -- explicit consideration of  19 degrees of freedom as
           vibrations may cause significant error
 Vibrational temperatures:     49.91    77.59    83.50   100.41   125.74
          (Kelvin)            166.83   203.90   232.56   291.67   363.46
                              366.32   429.65   438.00   512.58   567.37
                              595.51   722.71   745.75   836.79  1061.96
                             1120.94  1175.21  1181.29  1244.74  1282.06
                             1329.57  1358.88  1385.78  1490.31  1509.90
                             1529.82  1568.44  1624.51  1643.15  1663.10
                             1673.65  1692.33  1725.41  1766.29  1835.66
                             1857.81  1868.80  1887.50  1911.31  1971.86
                             1988.67  2002.49  2025.53  2034.52  2061.83
                             2101.22  2135.83  2141.01  2155.25  2156.02
                             2162.67  2173.78  2191.83  2196.08  2196.65
                             3385.93  4185.00  4196.69  4216.74  4252.82
                             4332.48  4345.99  4362.81  4368.43  4371.08
                             4393.92  4454.43  4462.65  4464.33  4486.88
                             4491.28  5060.05  5066.05

 Zero-point correction=                           0.250006 (Hartree/Particle)
 Thermal correction to Energy=                    0.263799
 Thermal correction to Enthalpy=                  0.264743
 Thermal correction to Gibbs Free Energy=         0.208168
 Sum of electronic and zero-point Energies=           -479.101257
 Sum of electronic and thermal Energies=              -479.087465
 Sum of electronic and thermal Enthalpies=            -479.086521
 Sum of electronic and thermal Free Energies=         -479.143096

                     E (Thermal)             CV                S
                      KCal/Mol        Cal/Mol-Kelvin    Cal/Mol-Kelvin
 Total                  165.536             48.309            119.072
 Electronic               0.000              0.000              0.000
 Translational            0.889              2.981             41.027
 Rotational               0.889              2.981             31.321
 Vibrational            163.759             42.348             46.724
 Vibration     1          0.594              1.983              5.541
 Vibration     2          0.596              1.976              4.668
 Vibration     3          0.596              1.974              4.523
 Vibration     4          0.598              1.969              4.159
 Vibration     5          0.601              1.958              3.718
 Vibration     6          0.608              1.936              3.167
 Vibration     7          0.615              1.912              2.781
 Vibration     8          0.622              1.889              2.531
 Vibration     9          0.639              1.836              2.108
 Vibration    10          0.664              1.758              1.712
 Vibration    11          0.665              1.755              1.698
 Vibration    12          0.692              1.676              1.425
 Vibration    13          0.695              1.665              1.392
 Vibration    14          0.732              1.562              1.138
 Vibration    15          0.761              1.482              0.984
 Vibration    16          0.777              1.440              0.913
 Vibration    17          0.858              1.245              0.652
 Vibration    18          0.873              1.209              0.614
 Vibration    19          0.938              1.071              0.482

 Optimization completed.
    -- Stationary point found.
 Normal termination of Gaussian 16 at Mon May 31 20:49:19 2021.
