 Gaussian 16, Revision A.03,
 Gaussian 16:  ES64L-G16RevA.03 25-Dec-2016

 -----------------------------
 # opt freq b3lyp/6-31g(2df,p)
 -----------------------------

 -------------------
 Title Card Required
 -------------------
 Symbolic Z-matrix:
 Charge =  0 Multiplicity = 1

 SCF Done:  E(RB3LYP) =  -363.790145030     A.U. after   12 cycles
 SCF Done:  E(RB3LYP) =  -363.799947193     A.U. after   10 cycles
 SCF Done:  E(RB3LYP) =  -363.804351496     A.U. after   10 cycles
 SCF Done:  E(RB3LYP) =  -363.810669471     A.U. after   11 cycles
 SCF Done:  E(RB3LYP) =  -363.814066268     A.U. after   10 cycles
 SCF Done:  E(RB3LYP) =  -363.818728206     A.U. after   11 cycles
 SCF Done:  E(RB3LYP) =  -363.819270997     A.U. after   10 cycles
 SCF Done:  E(RB3LYP) =  -363.819838419     A.U. after   10 cycles
 SCF Done:  E(RB3LYP) =  -363.820283167     A.U. after   10 cycles
 SCF Done:  E(RB3LYP) =  -363.820676882     A.U. after   10 cycles
 SCF Done:  E(RB3LYP) =  -363.834925588     A.U. after   11 cycles
 SCF Done:  E(RB3LYP) =  -363.835895197     A.U. after   10 cycles
 SCF Done:  E(RB3LYP) =  -363.836704386     A.U. after   10 cycles
 SCF Done:  E(RB3LYP) =  -363.836923710     A.U. after   10 cycles
 SCF Done:  E(RB3LYP) =  -363.836976653     A.U. after    9 cycles
 SCF Done:  E(RB3LYP) =  -363.836994946     A.U. after    8 cycles
 SCF Done:  E(RB3LYP) =  -363.836999993     A.U. after    8 cycles
 SCF Done:  E(RB3LYP) =  -363.837000515     A.U. after    6 cycles
 SCF Done:  E(RB3LYP) =  -363.837000637     A.U. after    6 cycles
 Optimization completed.
    -- Stationary point found.
 Normal termination of Gaussian 16 at Mon May 31 21:15:58 2021.

 ----------------------------------------------------------------------
 #N Geom=AllCheck Guess=TCheck SCRF=Check GenChk RB3LYP/6-31G(2df,p) Fr
 eq
 ----------------------------------------------------------------------

 Structure from the checkpoint file:  "CCNCpCppNpNC.chk"
 -------------------
 Title Card Required
 -------------------
 Charge =  0 Multiplicity = 1

                         Standard orientation:
 ---------------------------------------------------------------------
 Center     Atomic      Atomic             Coordinates (Angstroms)
 Number     Number       Type             X           Y           Z
 ---------------------------------------------------------------------
      1          6           0        3.024542   -0.753217    0.105228
      2          6           0        1.891391    0.245138   -0.126249
      3          7           0        0.614885   -0.331804    0.273939
      4          6           0       -0.614199    0.431062    0.003141
      5          6           0       -0.639695    1.829640    0.645806
      6          7           0       -0.831545    0.596553   -1.439465
      7          7           0       -1.680073   -0.351197    0.633667
      8          6           0       -1.969527   -1.644379    0.013425
      9          1           0        3.983449   -0.336995   -0.218717
     10          1           0        2.838746   -1.680577   -0.444014
     11          1           0        3.114669   -1.005588    1.168069
     12          1           0        1.835291    0.487859   -1.194050
     13          1           0        2.132350    1.189532    0.394413
     14          1           0        0.622947   -0.563852    1.262493
     15          1           0        0.195740    2.442349    0.295750
     16          1           0       -0.575447    1.738706    1.732659
     17          1           0       -1.566611    2.352280    0.389931
     18          1           0       -0.540186   -0.249204   -1.921351
     19          1           0       -0.263306    1.353007   -1.806381
     20          1           0       -2.522481    0.214040    0.615125
     21          1           0       -1.067626   -2.259841    0.027563
     22          1           0       -2.324438   -1.574213   -1.026964
     23          1           0       -2.741046   -2.151826    0.600387
 ---------------------------------------------------------------------

 SCF Done:  E(RB3LYP) =  -363.837000637     A.U. after    1 cycles

 The electronic state is 1-A.
 Alpha  occ. eigenvalues --  -14.30225 -14.30115 -14.30100 -10.25651 -10.20248
 Alpha  occ. eigenvalues --  -10.18489 -10.17251 -10.16977  -0.94314  -0.85916
 Alpha  occ. eigenvalues --   -0.83908  -0.73949  -0.71243  -0.65018  -0.61039
 Alpha  occ. eigenvalues --   -0.56276  -0.49415  -0.47717  -0.47566  -0.44736
 Alpha  occ. eigenvalues --   -0.44502  -0.41501  -0.39875  -0.39093  -0.37518
 Alpha  occ. eigenvalues --   -0.36760  -0.35953  -0.35458  -0.34106  -0.33856
 Alpha  occ. eigenvalues --   -0.24719  -0.22327  -0.21434
 Alpha virt. eigenvalues --    0.07452   0.10610   0.11097   0.11859   0.13332
 Alpha virt. eigenvalues --    0.15157   0.15964   0.16373   0.17046   0.17577
 Alpha virt. eigenvalues --    0.17919   0.18345   0.19372   0.20163   0.21378

 Mulliken charges:
               1
     1  C   -0.382191
     2  C   -0.111891
     3  N   -0.278265
     4  C    0.246924
     5  C   -0.423183
     6  N   -0.514767
     7  N   -0.295117
     8  C   -0.323635
     9  H    0.110796
    10  H    0.122326
    11  H    0.112491
    12  H    0.087706
    13  H    0.078411
    14  H    0.215568
    15  H    0.112299
    16  H    0.120260
    17  H    0.119166
    18  H    0.226936
    19  H    0.222493
    20  H    0.213718
    21  H    0.129791
    22  H    0.100050
    23  H    0.110113
 Sum of Mulliken charges =  -0.00000

 Dipole moment (field-independent basis, Debye):
    X=              0.8744    Y=              0.6426    Z=             -0.1707  Tot=              1.0984
 Quadrupole moment (field-independent basis, Debye-Ang):
   XX=            -51.1992   YY=            -51.3868   ZZ=            -51.5656
   XY=              0.8639   XZ=             -1.2250   YZ=              0.3254

  Exact polarizability:  88.474   1.933  78.438  -1.029   0.100  70.137
 Approx polarizability: 110.913   2.329 107.808  -1.574  -1.547 105.369

                      1                      2                      3
                      A                      A                      A
 Frequencies --     69.4297               105.7437               134.4594
 Red. masses --      1.9020                 2.4789                 2.1992
 Frc consts  --      0.0054                 0.0163                 0.0234
 IR Inten    --      0.3987                 1.2457                 2.1651

                      4                      5                      6
                      A                      A                      A
 Frequencies --    171.8108               211.9710               231.0847
 Red. masses --      1.6321                 1.2909                 1.1797
 Frc consts  --      0.0284                 0.0342                 0.0371
 IR Inten    --      0.4477                 4.7266                 0.9866

                      7                      8                      9
                      A                      A                      A
 Frequencies --    260.4284               269.3455               291.3643
 Red. masses --      1.1892                 2.3153                 1.2439
 Frc consts  --      0.0475                 0.0990                 0.0622
 IR Inten    --      0.3924                 3.0902                29.4556

                     10                     11                     12
                      A                      A                      A
 Frequencies --    335.6215               384.4458               393.5318
 Red. masses --      2.6144                 2.6586                 2.4332
 Frc consts  --      0.1735                 0.2315                 0.2220
 IR Inten    --      1.6568                10.8510                 6.1374

                     13                     14                     15
                      A                      A                      A
 Frequencies --    480.1843               521.6512               580.8195
 Red. masses --      2.5669                 2.5531                 2.9044
 Frc consts  --      0.3487                 0.4093                 0.5773
 IR Inten    --     12.7378                15.8057                 4.1021

                     16                     17                     18
                      A                      A                      A
 Frequencies --    738.0348               755.3884               802.2511
 Red. masses --      2.2412                 1.6682                 1.4005
 Frc consts  --      0.7193                 0.5609                 0.5311
 IR Inten    --     39.4296                96.9469                36.0384

                     19                     20                     21
                      A                      A                      A
 Frequencies --    835.3791               850.3785               920.5114
 Red. masses --      1.4952                 1.3095                 1.5043
 Frc consts  --      0.6148                 0.5579                 0.7510
 IR Inten    --     37.7878                89.5133                24.4577

                     22                     23                     24
                      A                      A                      A
 Frequencies --    949.0253               965.7044              1006.2896
 Red. masses --      1.6513                 1.6414                 2.0809
 Frc consts  --      0.8762                 0.9019                 1.2415
 IR Inten    --      5.8476                 2.7809                18.3601

                     25                     26                     27
                      A                      A                      A
 Frequencies --   1084.5744              1087.7716              1124.3417
 Red. masses --      1.7948                 1.8230                 2.8807
 Frc consts  --      1.2439                 1.2709                 2.1456
 IR Inten    --      2.5945                14.7693                22.2340

                     28                     29                     30
                      A                      A                      A
 Frequencies --   1135.5198              1160.1682              1169.2079
 Red. masses --      1.7113                 1.5527                 2.5544
 Frc consts  --      1.3000                 1.2314                 2.0574
 IR Inten    --     23.1140                26.5010                82.0075

                     31                     32                     33
                      A                      A                      A
 Frequencies --   1234.2984              1253.9830              1300.2933
 Red. masses --      2.4185                 2.2510                 1.1844
 Frc consts  --      2.1709                 2.0855                 1.1799
 IR Inten    --     43.2028                44.4206                17.0403

                     34                     35                     36
                      A                      A                      A
 Frequencies --   1322.4347              1384.0981              1399.3809
 Red. masses --      1.8402                 1.3200                 1.2938
 Frc consts  --      1.8961                 1.4899                 1.4927
 IR Inten    --     25.1629                 1.7577                15.6024

                     37                     38                     39
                      A                      A                      A
 Frequencies --   1410.0643              1439.0070              1464.3803
 Red. masses --      1.2883                 1.1744                 1.2326
 Frc consts  --      1.5092                 1.4328                 1.5573
 IR Inten    --      6.4397                 1.8179                40.4910

                     40                     41                     42
                      A                      A                      A
 Frequencies --   1481.0204              1489.1016              1491.7158
 Red. masses --      1.1145                 1.0807                 1.0484
 Frc consts  --      1.4403                 1.4119                 1.3746
 IR Inten    --     10.3372                 8.8873                 3.6347

                     43                     44                     45
                      A                      A                      A
 Frequencies --   1494.9344              1498.7683              1509.1688
 Red. masses --      1.0980                 1.0580                 1.1043
 Frc consts  --      1.4458                 1.4002                 1.4818
 IR Inten    --     15.4707                 2.4270                 1.3655

                     46                     47                     48
                      A                      A                      A
 Frequencies --   1523.0809              1534.3594              1653.3074
 Red. masses --      1.0892                 1.0755                 1.1006
 Frc consts  --      1.4886                 1.4918                 1.7725
 IR Inten    --      2.7551                12.4101                27.2170

                     49                     50                     51
                      A                      A                      A
 Frequencies --   2933.3329              2979.0993              3032.2376
 Red. masses --      1.0726                 1.0548                 1.0381
 Frc consts  --      5.4375                 5.5156                 5.6234
 IR Inten    --     72.6217                68.1835                22.7870

                     52                     53                     54
                      A                      A                      A
 Frequencies --   3042.8726              3045.0378              3075.0898
 Red. masses --      1.0366                 1.0818                 1.0803
 Frc consts  --      5.6550                 5.9100                 6.0187
 IR Inten    --     16.0660                20.9827                38.2018

                     55                     56                     57
                      A                      A                      A
 Frequencies --   3098.4074              3111.1877              3117.0536
 Red. masses --      1.0997                 1.1008                 1.1022
 Frc consts  --      6.2201                 6.2780                 6.3098
 IR Inten    --     39.5065                23.8809                30.0487

                     58                     59                     60
                      A                      A                      A
 Frequencies --   3126.9330              3128.9947              3495.3537
 Red. masses --      1.0995                 1.1023                 1.0488
 Frc consts  --      6.3342                 6.3583                 7.5496
 IR Inten    --     17.4306                18.0318                 0.5689

                     61                     62                     63
                      A                      A                      A
 Frequencies --   3517.7591              3526.2625              3578.4753
 Red. masses --      1.0731                 1.0734                 1.0924
 Frc consts  --      7.8239                 7.8641                 8.2421
 IR Inten    --      0.2081                 0.0907                 0.9968

 - Thermochemistry -
 -------------------
 Temperature   298.150 Kelvin.  Pressure   1.00000 Atm.
 Atom     1 has atomic number  6 and mass  12.00000

 Molecular mass:   117.12660 amu.
 Principal axes and moments of inertia in atomic units:
                           1         2         3
     Eigenvalues --   654.999661382.120111623.78138
           X            0.99999   0.00406   0.00031
           Y           -0.00407   0.99960   0.02794
           Z           -0.00020  -0.02794   0.99961
 This molecule is an asymmetric top.
 Rotational symmetry number  1.
 Warning -- assumption of classical behavior for rotation
           may cause significant error
 Rotational temperatures (Kelvin)      0.13224     0.06267     0.05334
 Rotational constants (GHZ):           2.75533     1.30578     1.11144
 Zero-point vibrational energy     554576.4 (Joules/Mol)
                                  132.54694 (Kcal/Mol)
 Warning -- explicit consideration of  15 degrees of freedom as
           vibrations may cause significant error
 Vibrational temperatures:     99.89   152.14   193.46   247.20   304.98
          (Kelvin)            332.48   374.70   387.53   419.21   482.88
                              553.13   566.20   690.88   750.54   835.67
                             1061.87  1086.84  1154.26  1201.92  1223.50
                             1324.41  1365.44  1389.43  1447.83  1560.46
                             1565.06  1617.68  1633.76  1669.22  1682.23
                             1775.88  1804.20  1870.83  1902.69  1991.41
                             2013.40  2028.77  2070.41  2106.92  2130.86
                             2142.49  2146.25  2150.88  2156.39  2171.36
                             2191.37  2207.60  2378.74  4220.41  4286.26
                             4362.71  4378.01  4381.13  4424.37  4457.92
                             4476.31  4484.74  4498.96  4501.93  5029.03
                             5061.27  5073.51  5148.63

 Zero-point correction=                           0.211227 (Hartree/Particle)
 Thermal correction to Energy=                    0.221747
 Thermal correction to Enthalpy=                  0.222691
 Thermal correction to Gibbs Free Energy=         0.176322
 Sum of electronic and zero-point Energies=           -363.625774
 Sum of electronic and thermal Energies=              -363.615254
 Sum of electronic and thermal Enthalpies=            -363.614310
 Sum of electronic and thermal Free Energies=         -363.660679

                     E (Thermal)             CV                S
                      KCal/Mol        Cal/Mol-Kelvin    Cal/Mol-Kelvin
 Total                  139.148             38.937             97.591
 Electronic               0.000              0.000              0.000
 Translational            0.889              2.981             40.189
 Rotational               0.889              2.981             28.776
 Vibrational            137.371             32.975             28.626
 Vibration     1          0.598              1.969              4.169
 Vibration     2          0.605              1.945              3.346
 Vibration     3          0.613              1.919              2.881
 Vibration     4          0.626              1.877              2.416
 Vibration     5          0.643              1.823              2.027
 Vibration     6          0.653              1.793              1.871
 Vibration     7          0.668              1.745              1.659
 Vibration     8          0.674              1.730              1.600
 Vibration     9          0.687              1.690              1.466
 Vibration    10          0.717              1.604              1.233
 Vibration    11          0.753              1.503              1.022
 Vibration    12          0.761              1.484              0.987
 Vibration    13          0.837              1.294              0.710
 Vibration    14          0.877              1.202              0.606
 Vibration    15          0.938              1.073              0.484

 Optimization completed.
    -- Stationary point found.
 Normal termination of Gaussian 16 at Mon May 31 21:51:27 2021.
