 Gaussian 16, Revision A.03,
 Gaussian 16:  ES64L-G16RevA.03 25-Dec-2016

 -----------------------------
 # opt freq b3lyp/6-31g(2df,p)
 -----------------------------

 -------------------
 Title Card Required
 -------------------
 Symbolic Z-matrix:
 Charge =  0 Multiplicity = 1

 SCF Done:  E(RB3LYP) =  -432.771299120     A.U. after   14 cycles
 SCF Done:  E(RB3LYP) =  -432.775184260     A.U. after   12 cycles
 SCF Done:  E(RB3LYP) =  -432.775911347     A.U. after   11 cycles
 SCF Done:  E(RB3LYP) =  -432.776207651     A.U. after   11 cycles
 SCF Done:  E(RB3LYP) =  -432.776226304     A.U. after   10 cycles
 SCF Done:  E(RB3LYP) =  -432.776230685     A.U. after    8 cycles
 Optimization completed.
    -- Stationary point found.
 Normal termination of Gaussian 16 at Mon May 31 14:23:47 2021.

 ----------------------------------------------------------------------
 #N Geom=AllCheck Guess=TCheck SCRF=Check GenChk RB3LYP/6-31G(2df,p) Fr
 eq
 ----------------------------------------------------------------------

 Structure from the checkpoint file:  "CCNdNNdCpNpNC.chk"
 -------------------
 Title Card Required
 -------------------
 Charge =  0 Multiplicity = 1

                         Standard orientation:
 ---------------------------------------------------------------------
 Center     Atomic      Atomic             Coordinates (Angstroms)
 Number     Number       Type             X           Y           Z
 ---------------------------------------------------------------------
      1          6           0        4.294057   -0.323655    0.000012
      2          6           0        2.989792    0.464997   -0.000004
      3          7           0        1.846340   -0.464754   -0.000009
      4          7           0        0.762095    0.154926   -0.000010
      5          7           0       -0.325476   -0.671808   -0.000005
      6          6           0       -1.445285    0.032923    0.000001
      7          7           0       -1.496905    1.383460    0.000005
      8          7           0       -2.592652   -0.693197    0.000006
      9          6           0       -3.960117   -0.235456    0.000001
     10          1           0        5.156921    0.349639    0.000014
     11          1           0        4.356969   -0.966643   -0.883046
     12          1           0        4.356955   -0.966632    0.883078
     13          1           0        2.934426    1.118545   -0.881593
     14          1           0        2.934411    1.118556    0.881576
     15          1           0       -0.597012    1.837744   -0.000003
     16          1           0       -2.344592    1.914237   -0.000001
     17          1           0       -2.412274   -1.685405   -0.000002
     18          1           0       -4.009827    0.854254    0.000010
     19          1           0       -4.500245   -0.583771    0.888842
     20          1           0       -4.500237   -0.583757   -0.888850
 ---------------------------------------------------------------------

 SCF Done:  E(RB3LYP) =  -432.776230685     A.U. after    1 cycles

 The electronic state is 1-A.
 Alpha  occ. eigenvalues --  -14.36650 -14.35921 -14.34973 -14.31968 -14.29725
 Alpha  occ. eigenvalues --  -10.28759 -10.24049 -10.18451 -10.15649  -1.02713
 Alpha  occ. eigenvalues --   -0.97893  -0.90110  -0.85632  -0.75530  -0.71999
 Alpha  occ. eigenvalues --   -0.63859  -0.60701  -0.56153  -0.55462  -0.49780
 Alpha  occ. eigenvalues --   -0.48432  -0.46571  -0.44707  -0.44373  -0.41902
 Alpha  occ. eigenvalues --   -0.41046  -0.40713  -0.35886  -0.35780  -0.34521
 Alpha  occ. eigenvalues --   -0.31789  -0.26703  -0.26536  -0.20136  -0.19115
 Alpha virt. eigenvalues --   -0.00851   0.05604   0.08751   0.09410   0.12072
 Alpha virt. eigenvalues --    0.12607   0.14376   0.15102   0.16876   0.17556
 Alpha virt. eigenvalues --    0.17649   0.18139   0.18617   0.22030   0.22700

 Mulliken charges:
               1
     1  C   -0.377971
     2  C   -0.080101
     3  N   -0.147411
     4  N   -0.128690
     5  N   -0.307599
     6  C    0.520242
     7  N   -0.551206
     8  N   -0.326866
     9  C   -0.331068
    10  H    0.101179
    11  H    0.120853
    12  H    0.120853
    13  H    0.095372
    14  H    0.095372
    15  H    0.268221
    16  H    0.256529
    17  H    0.260746
    18  H    0.131447
    19  H    0.140048
    20  H    0.140048
 Sum of Mulliken charges =  -0.00000

 Dipole moment (field-independent basis, Debye):
    X=             -4.8040    Y=              2.6320    Z=             -0.0000  Tot=              5.4777
 Quadrupole moment (field-independent basis, Debye-Ang):
   XX=            -38.5841   YY=            -51.2441   ZZ=            -55.4796
   XY=              1.8401   XZ=              0.0000   YZ=             -0.0000

  Exact polarizability: 157.050   1.337  72.516  -0.000  -0.000  52.679
 Approx polarizability: 198.268  -3.505 112.824  -0.000   0.000  79.263

 ******    3 imaginary frequencies (negative Signs) ******

                      1                      2                      3
                      A                      A                      A
 Frequencies --   -366.7672              -184.7918               -75.7265
 Red. masses --      1.2115                 1.1336                 2.4081
 Frc consts  --      0.0960                 0.0228                 0.0081
 IR Inten    --    145.3469                 1.9766                 0.0892

                      4                      5                      6
                      A                      A                      A
 Frequencies --     17.7949               107.5782               117.4802
 Red. masses --      2.9340                 3.6180                 3.5346
 Frc consts  --      0.0005                 0.0247                 0.0287
 IR Inten    --     14.4653                 1.6604                 0.4565

                      7                      8                      9
                      A                      A                      A
 Frequencies --    162.4311               239.2648               255.5063
 Red. masses --      3.0827                 1.3793                 3.3202
 Frc consts  --      0.0479                 0.0465                 0.1277
 IR Inten    --      0.2266                 0.0419                 2.0897

                     10                     11                     12
                      A                      A                      A
 Frequencies --    313.5463               373.4925               393.1702
 Red. masses --      3.3722                 4.7546                 3.5889
 Frc consts  --      0.1953                 0.3908                 0.3269
 IR Inten    --      1.0158                 1.0544                 2.3579

                     13                     14                     15
                      A                      A                      A
 Frequencies --    498.1878               512.9801               607.3783
 Red. masses --      3.2939                 1.1039                 1.0599
 Frc consts  --      0.4817                 0.1711                 0.2304
 IR Inten    --     26.2494                43.0139                53.1518

                     16                     17                     18
                      A                      A                      A
 Frequencies --    627.6077               650.7611               736.3245
 Red. masses --      6.5028                 2.9787                 7.2768
 Frc consts  --      1.5091                 0.7432                 2.3245
 IR Inten    --      3.4928                 0.0353                16.6914

                     19                     20                     21
                      A                      A                      A
 Frequencies --    776.4236               899.0119               941.2577
 Red. masses --      1.1581                 2.8407                 2.1321
 Frc consts  --      0.4113                 1.3527                 1.1129
 IR Inten    --      2.0182                19.8558                22.2720

                     22                     23                     24
                      A                      A                      A
 Frequencies --   1048.7423              1071.7821              1109.3553
 Red. masses --      2.6430                 2.9428                 2.7749
 Frc consts  --      1.7127                 1.9917                 2.0120
 IR Inten    --     51.2226               130.1923               101.5852

                     25                     26                     27
                      A                      A                      A
 Frequencies --   1114.2418              1137.7137              1147.4158
 Red. masses --      1.4547                 1.9515                 1.2759
 Frc consts  --      1.0641                 1.4883                 0.9897
 IR Inten    --      1.6156                23.9166                 0.0902

                     28                     29                     30
                      A                      A                      A
 Frequencies --   1172.0140              1219.8237              1281.6932
 Red. masses --      2.0448                 3.3387                 1.1608
 Frc consts  --      1.6548                 2.9270                 1.1235
 IR Inten    --     33.4983                48.5246                 0.0388

                     31                     32                     33
                      A                      A                      A
 Frequencies --   1363.6125              1411.1462              1420.5348
 Red. masses --      1.4561                 1.3056                 1.8192
 Frc consts  --      1.5952                 1.5318                 2.1629
 IR Inten    --    148.5867                50.8751               223.6435

                     34                     35                     36
                      A                      A                      A
 Frequencies --   1460.8099              1469.0272              1475.1122
 Red. masses --      1.4255                 1.0783                 1.0372
 Frc consts  --      1.7923                 1.3711                 1.3297
 IR Inten    --     11.9968                 1.2733                 3.8857

                     37                     38                     39
                      A                      A                      A
 Frequencies --   1488.4959              1503.8555              1510.2385
 Red. masses --      1.0399                 1.0601                 1.1667
 Frc consts  --      1.3575                 1.4126                 1.5679
 IR Inten    --      3.3707                 6.5973               148.2625

                     40                     41                     42
                      A                      A                      A
 Frequencies --   1528.4350              1574.2290              1628.9052
 Red. masses --      1.3864                 4.4180                 2.5130
 Frc consts  --      1.9083                 6.4507                 3.9285
 IR Inten    --      6.8356               429.7115               276.2564

                     43                     44                     45
                      A                      A                      A
 Frequencies --   1668.5499              2996.2042              3018.3624
 Red. masses --      3.7338                 1.0570                 1.0393
 Frc consts  --      6.1246                 5.5909                 5.5788
 IR Inten    --    446.7034                37.8551                90.7202

                     46                     47                     48
                      A                      A                      A
 Frequencies --   3032.9367              3039.3782              3062.1365
 Red. masses --      1.1043                 1.0350                 1.1042
 Frc consts  --      5.9851                 5.6332                 6.1003
 IR Inten    --     27.6888                31.3882                28.2244

                     49                     50                     51
                      A                      A                      A
 Frequencies --   3111.1143              3113.5972              3134.6277
 Red. masses --      1.1015                 1.1023                 1.0940
 Frc consts  --      6.2816                 6.2960                 6.3337
 IR Inten    --     33.3198                32.9748                20.6722

                     52                     53                     54
                      A                      A                      A
 Frequencies --   3599.0978              3631.1154              3767.6467
 Red. masses --      1.0487                 1.0754                 1.0990
 Frc consts  --      8.0034                 8.3542                 9.1918
 IR Inten    --     51.1286                48.2995                70.5962

 - Thermochemistry -
 -------------------
 Temperature   298.150 Kelvin.  Pressure   1.00000 Atm.
 Atom     1 has atomic number  6 and mass  12.00000

 Molecular mass:   129.10145 amu.
 Principal axes and moments of inertia in atomic units:
                           1         2         3
     Eigenvalues --   244.038263144.584813354.83505
           X            1.00000   0.00034   0.00000
           Y           -0.00034   1.00000  -0.00000
           Z           -0.00000   0.00000   1.00000
 This molecule is an asymmetric top.
 Rotational symmetry number  1.
 Rotational temperatures (Kelvin)      0.35492     0.02754     0.02582
 Rotational constants (GHZ):           7.39532     0.57392     0.53795
    3 imaginary frequencies ignored.
 Zero-point vibrational energy     439879.7 (Joules/Mol)
                                  105.13378 (Kcal/Mol)
 Warning -- explicit consideration of  12 degrees of freedom as
           vibrations may cause significant error
 Vibrational temperatures:     25.60   154.78   169.03   233.70   344.25
          (Kelvin)            367.62   451.12   537.37   565.68   716.78
                              738.06   873.88   902.99   936.30  1059.41
                             1117.10  1293.48  1354.26  1508.91  1542.06
                             1596.11  1603.15  1636.92  1650.88  1686.27
                             1755.05  1844.07  1961.93  2030.32  2043.83
                             2101.78  2113.60  2122.36  2141.61  2163.71
                             2172.90  2199.08  2264.96  2343.63  2400.67
                             4310.87  4342.75  4363.72  4372.99  4405.73
                             4476.20  4479.77  4510.03  5178.30  5224.37
                             5420.80

 Zero-point correction=                           0.167541 (Hartree/Particle)
 Thermal correction to Energy=                    0.176780
 Thermal correction to Enthalpy=                  0.177724
 Thermal correction to Gibbs Free Energy=         0.131898
 Sum of electronic and zero-point Energies=           -432.608689
 Sum of electronic and thermal Energies=              -432.599450
 Sum of electronic and thermal Enthalpies=            -432.598506
 Sum of electronic and thermal Free Energies=         -432.644333

                     E (Thermal)             CV                S
                      KCal/Mol        Cal/Mol-Kelvin    Cal/Mol-Kelvin
 Total                  110.931             32.945             96.450
 Electronic               0.000              0.000              0.000
 Translational            0.889              2.981             40.479
 Rotational               0.889              2.981             29.333
 Vibrational            109.154             26.983             26.638
 Vibration     1          0.593              1.986              6.866
 Vibration     2          0.606              1.943              3.312
 Vibration     3          0.608              1.935              3.141
 Vibration     4          0.623              1.889              2.521
 Vibration     5          0.657              1.780              1.808
 Vibration     6          0.666              1.753              1.692
 Vibration     7          0.701              1.648              1.344
 Vibration     8          0.745              1.527              1.065
 Vibration     9          0.760              1.485              0.988
 Vibration    10          0.854              1.254              0.663
 Vibration    11          0.868              1.221              0.626
 Vibration    12          0.966              1.016              0.437

 Optimization completed.
    -- Stationary point found.
 Normal termination of Gaussian 16 at Mon May 31 14:45:28 2021.
