 Gaussian 16, Revision A.03,
 Gaussian 16:  ES64L-G16RevA.03 25-Dec-2016

 -----------------------------
 # opt freq b3lyp/6-31g(2df,p)
 -----------------------------

 -------------------
 Title Card Required
 -------------------
 Symbolic Z-matrix:
 Charge =  0 Multiplicity = 1

 SCF Done:  E(RB3LYP) =  -378.564034555     A.U. after   13 cycles
 SCF Done:  E(RB3LYP) =  -378.570581948     A.U. after   13 cycles
 SCF Done:  E(RB3LYP) =  -378.571841182     A.U. after   13 cycles
 SCF Done:  E(RB3LYP) =  -378.572162711     A.U. after   12 cycles
 SCF Done:  E(RB3LYP) =  -378.572470402     A.U. after   12 cycles
 SCF Done:  E(RB3LYP) =  -378.572795100     A.U. after   13 cycles
 SCF Done:  E(RB3LYP) =  -378.574055281     A.U. after   15 cycles
 SCF Done:  E(RB3LYP) =  -378.562507979     A.U. after   14 cycles
 SCF Done:  E(RB3LYP) =  -378.576504679     A.U. after   13 cycles
 SCF Done:  E(RB3LYP) =  -378.577465564     A.U. after   13 cycles
 SCF Done:  E(RB3LYP) =  -378.579057253     A.U. after   14 cycles
 SCF Done:  E(RB3LYP) =  -378.579400760     A.U. after   12 cycles
 SCF Done:  E(RB3LYP) =  -378.579750794     A.U. after   13 cycles
 SCF Done:  E(RB3LYP) =  -378.579778818     A.U. after   13 cycles
 SCF Done:  E(RB3LYP) =  -378.579624937     A.U. after   13 cycles
 SCF Done:  E(RB3LYP) =  -378.579791249     A.U. after   13 cycles
 SCF Done:  E(RB3LYP) =  -378.579792196     A.U. after    9 cycles
 SCF Done:  E(RB3LYP) =  -378.579792399     A.U. after   11 cycles
 SCF Done:  E(RB3LYP) =  -378.579792765     A.U. after    9 cycles
 Optimization completed.
    -- Stationary point found.
 Normal termination of Gaussian 16 at Tue Jun  1 20:00:35 2021.

 ----------------------------------------------------------------------
 #N Geom=AllCheck Guess=TCheck SCRF=Check GenChk RB3LYP/6-31G(2df,p) Fr
 eq
 ----------------------------------------------------------------------

 Structure from the checkpoint file:  "CCNNpCpCNdN.chk"
 -------------------
 Title Card Required
 -------------------
 Charge =  0 Multiplicity = 1

                         Standard orientation:
 ---------------------------------------------------------------------
 Center     Atomic      Atomic             Coordinates (Angstroms)
 Number     Number       Type             X           Y           Z
 ---------------------------------------------------------------------
      1          6           0       -3.431545   -0.518708    0.151297
      2          6           0       -2.029987   -0.496243   -0.452127
      3          7           0       -1.192393    0.462164    0.263373
      4          7           0        0.135262    0.513042   -0.242930
      5          6           0        0.678950    1.851093   -0.057410
      6          6           0        0.988176   -0.514453    0.330533
      7          7           0        2.223850   -0.647169   -0.459719
      8          7           0        3.231759   -0.733842    0.259012
      9          1           0       -4.077612   -1.203501   -0.405076
     10          1           0       -3.878392    0.479286    0.129612
     11          1           0       -3.411599   -0.857477    1.193876
     12          1           0       -2.065346   -0.174291   -1.497675
     13          1           0       -1.614617   -1.519980   -0.453045
     14          1           0       -1.187968    0.248648    1.264829
     15          1           0        0.016293    2.569766   -0.541684
     16          1           0        1.668141    1.904166   -0.520955
     17          1           0        0.780686    2.128953    1.007638
     18          1           0        0.473024   -1.477344    0.234774
     19          1           0        1.236342   -0.340806    1.396368
     20          1           0        4.038142   -0.846924   -0.380566
 ---------------------------------------------------------------------

 SCF Done:  E(RB3LYP) =  -378.579792765     A.U. after    1 cycles

 The electronic state is 1-A.
 Alpha  occ. eigenvalues --  -14.38562 -14.37657 -14.34738 -14.33913 -10.23185
 Alpha  occ. eigenvalues --  -10.20487 -10.19565 -10.17745  -1.03383  -0.97813
 Alpha  occ. eigenvalues --   -0.83330  -0.75436  -0.72232  -0.65113  -0.60878
 Alpha  occ. eigenvalues --   -0.58516  -0.51282  -0.50168  -0.47551  -0.45643
 Alpha  occ. eigenvalues --   -0.43886  -0.42781  -0.40871  -0.39452  -0.38611
 Alpha  occ. eigenvalues --   -0.36805  -0.35726  -0.35102  -0.34809  -0.24002
 Alpha  occ. eigenvalues --   -0.22850  -0.22730
 Alpha virt. eigenvalues --   -0.04586   0.08069   0.10428   0.11085   0.11547
 Alpha virt. eigenvalues --    0.13729   0.14699   0.15738   0.16100   0.17144
 Alpha virt. eigenvalues --    0.17956   0.18325   0.19635   0.20585   0.22354

 Mulliken charges:
               1
     1  C   -0.393831
     2  C   -0.085502
     3  N   -0.271782
     4  N   -0.057120
     5  C   -0.301175
     6  C   -0.057017
     7  N   -0.112492
     8  N   -0.274473
     9  H    0.119252
    10  H    0.129162
    11  H    0.111667
    12  H    0.116484
    13  H    0.078430
    14  H    0.199861
    15  H    0.129367
    16  H    0.124145
    17  H    0.091204
    18  H    0.122695
    19  H    0.084579
    20  H    0.246547
 Sum of Mulliken charges =  -0.00000

 Dipole moment (field-independent basis, Debye):
    X=             -0.2982    Y=             -0.5942    Z=              0.5996  Tot=              0.8953
 Quadrupole moment (field-independent basis, Debye-Ang):
   XX=            -46.5427   YY=            -49.0792   ZZ=            -51.5357
   XY=              1.7074   XZ=             -2.3469   YZ=             -0.0873

  Exact polarizability: 102.831   0.112  66.177  -0.343   0.269  62.000
 Approx polarizability: 126.817  -1.247  92.677   2.957   0.068  97.450

                      1                      2                      3
                      A                      A                      A
 Frequencies --     58.2007                73.6702                79.9679
 Red. masses --      4.0671                 3.1469                 2.6546
 Frc consts  --      0.0081                 0.0101                 0.0100
 IR Inten    --      0.1515                 0.1862                 0.2387

                      4                      5                      6
                      A                      A                      A
 Frequencies --    126.1514               197.1062               245.9619
 Red. masses --      2.3000                 2.0026                 1.4049
 Frc consts  --      0.0216                 0.0458                 0.0501
 IR Inten    --      0.9025                 1.4912                 0.5497

                      7                      8                      9
                      A                      A                      A
 Frequencies --    249.8350               273.7520               329.2581
 Red. masses --      1.2310                 2.3179                 3.0852
 Frc consts  --      0.0453                 0.1023                 0.1971
 IR Inten    --      0.2991                 2.1948                 1.9223

                     10                     11                     12
                      A                      A                      A
 Frequencies --    395.9381               449.0389               522.0289
 Red. masses --      2.4511                 3.1986                 3.0581
 Frc consts  --      0.2264                 0.3800                 0.4910
 IR Inten    --      4.7260                 1.4993                 7.2095

                     13                     14                     15
                      A                      A                      A
 Frequencies --    563.9736               776.7267               813.4590
 Red. masses --      3.8689                 1.8119                 1.1265
 Frc consts  --      0.7250                 0.6440                 0.4392
 IR Inten    --      3.4119                27.4677                 4.0943

                     16                     17                     18
                      A                      A                      A
 Frequencies --    849.4486               926.9506               938.4067
 Red. masses --      1.5204                 1.4029                 2.6654
 Frc consts  --      0.6464                 0.7102                 1.3829
 IR Inten    --     58.7130                15.3326                 7.2472

                     19                     20                     21
                      A                      A                      A
 Frequencies --    993.8849              1040.1562              1069.8872
 Red. masses --      2.4378                 2.4466                 1.7314
 Frc consts  --      1.4188                 1.5596                 1.1676
 IR Inten    --      8.2910                19.2959                 9.8066

                     22                     23                     24
                      A                      A                      A
 Frequencies --   1096.5000              1143.6761              1148.6655
 Red. masses --      2.2902                 1.4753                 2.0466
 Frc consts  --      1.6223                 1.1369                 1.5910
 IR Inten    --     16.1372                17.0204                28.1172

                     25                     26                     27
                      A                      A                      A
 Frequencies --   1200.0103              1215.0881              1253.6789
 Red. masses --      1.7356                 1.8640                 2.6808
 Frc consts  --      1.4725                 1.6215                 2.4825
 IR Inten    --      2.9772                 7.2527                 5.7175

                     28                     29                     30
                      A                      A                      A
 Frequencies --   1289.4288              1292.5365              1375.3213
 Red. masses --      1.3711                 1.3220                 1.3216
 Frc consts  --      1.3431                 1.3012                 1.4728
 IR Inten    --      3.6166                14.0972                25.3461

                     31                     32                     33
                      A                      A                      A
 Frequencies --   1382.5080              1410.4472              1443.8588
 Red. masses --      1.2900                 1.2935                 1.1635
 Frc consts  --      1.4526                 1.5161                 1.4292
 IR Inten    --      9.4872                 6.5837                 1.1886

                     34                     35                     36
                      A                      A                      A
 Frequencies --   1467.8326              1478.9170              1489.9520
 Red. masses --      1.0936                 1.0662                 1.0823
 Frc consts  --      1.3882                 1.3740                 1.4156
 IR Inten    --      0.1040                 2.3070                 8.3236

                     37                     38                     39
                      A                      A                      A
 Frequencies --   1492.2860              1498.2278              1500.4368
 Red. masses --      1.2295                 1.0456                 1.0574
 Frc consts  --      1.6131                 1.3828                 1.4025
 IR Inten    --     30.6271                 2.5203                 2.8269

                     40                     41                     42
                      A                      A                      A
 Frequencies --   1517.1910              1527.5804              1650.6700
 Red. masses --      1.1596                 1.1086                 9.9782
 Frc consts  --      1.5726                 1.5242                16.0186
 IR Inten    --      4.2666                 6.3898                 4.4833

                     43                     44                     45
                      A                      A                      A
 Frequencies --   2909.3366              2938.0947              2943.6934
 Red. masses --      1.0684                 1.0731                 1.0591
 Frc consts  --      5.3279                 5.4578                 5.4073
 IR Inten    --     43.8660                75.5736                71.4722

                     46                     47                     48
                      A                      A                      A
 Frequencies --   3033.4383              3058.5044              3069.5689
 Red. masses --      1.0387                 1.0895                 1.0859
 Frc consts  --      5.6311                 6.0049                 6.0281
 IR Inten    --     22.1339                13.5947                 9.0862

                     49                     50                     51
                      A                      A                      A
 Frequencies --   3082.7497              3101.8135              3121.6074
 Red. masses --      1.0734                 1.0975                 1.1024
 Frc consts  --      6.0102                 6.2216                 6.3292
 IR Inten    --     25.0711                42.1084                23.0635

                     52                     53                     54
                      A                      A                      A
 Frequencies --   3139.5404              3246.5927              3371.4123
 Red. masses --      1.1021                 1.0739                 1.0732
 Frc consts  --      6.4002                 6.6691                 7.1872
 IR Inten    --     16.6183                27.9710                14.7979

 - Thermochemistry -
 -------------------
 Temperature   298.150 Kelvin.  Pressure   1.00000 Atm.
 Atom     1 has atomic number  6 and mass  12.00000

 Molecular mass:   116.10620 amu.
 Principal axes and moments of inertia in atomic units:
                           1         2         3
     Eigenvalues --   401.244951914.580482178.59143
           X            0.99979   0.02057  -0.00096
           Y           -0.02057   0.99979   0.00071
           Z            0.00098  -0.00069   1.00000
 This molecule is an asymmetric top.
 Rotational symmetry number  1.
 Rotational temperatures (Kelvin)      0.21586     0.04524     0.03976
 Rotational constants (GHZ):           4.49785     0.94263     0.82840
 Zero-point vibrational energy     459754.6 (Joules/Mol)
                                  109.88399 (Kcal/Mol)
 Warning -- explicit consideration of  13 degrees of freedom as
           vibrations may cause significant error
 Vibrational temperatures:     83.74   105.99   115.06   181.50   283.59
          (Kelvin)            353.88   359.46   393.87   473.73   569.67
                              646.07   751.08   811.43  1117.54  1170.39
                             1222.17  1333.68  1350.16  1429.98  1496.55
                             1539.33  1577.62  1645.49  1652.67  1726.55
                             1748.24  1803.76  1855.20  1859.67  1978.78
                             1989.12  2029.32  2077.39  2111.88  2127.83
                             2143.71  2147.07  2155.62  2158.79  2182.90
                             2197.85  2374.95  4185.89  4227.26  4235.32
                             4364.44  4400.51  4416.43  4435.39  4462.82
                             4491.30  4517.10  4671.12  4850.71

 Zero-point correction=                           0.175111 (Hartree/Particle)
 Thermal correction to Energy=                    0.184984
 Thermal correction to Enthalpy=                  0.185928
 Thermal correction to Gibbs Free Energy=         0.139596
 Sum of electronic and zero-point Energies=           -378.404681
 Sum of electronic and thermal Energies=              -378.394809
 Sum of electronic and thermal Enthalpies=            -378.393865
 Sum of electronic and thermal Free Energies=         -378.440197

                     E (Thermal)             CV                S
                      KCal/Mol        Cal/Mol-Kelvin    Cal/Mol-Kelvin
 Total                  116.079             34.211             97.514
 Electronic               0.000              0.000              0.000
 Translational            0.889              2.981             40.163
 Rotational               0.889              2.981             28.905
 Vibrational            114.302             28.249             28.446
 Vibration     1          0.596              1.974              4.517
 Vibration     2          0.599              1.966              4.053
 Vibration     3          0.600              1.963              3.892
 Vibration     4          0.611              1.927              3.004
 Vibration     5          0.636              1.844              2.160
 Vibration     6          0.660              1.769              1.759
 Vibration     7          0.663              1.763              1.732
 Vibration     8          0.676              1.722              1.572
 Vibration     9          0.712              1.617              1.264
 Vibration    10          0.763              1.479              0.978
 Vibration    11          0.808              1.363              0.799
 Vibration    12          0.877              1.201              0.605
 Vibration    13          0.920              1.109              0.516

 Optimization completed.
    -- Stationary point found.
 Normal termination of Gaussian 16 at Tue Jun  1 20:34:37 2021.
