 Gaussian 16, Revision A.03,
 Gaussian 16:  ES64L-G16RevA.03 25-Dec-2016

 -----------------------------
 # opt freq b3lyp/6-31g(2df,p)
 -----------------------------

 -------------------
 Title Card Required
 -------------------
 Symbolic Z-matrix:
 Charge =  0 Multiplicity = 1

 SCF Done:  E(RB3LYP) =  -472.076439765     A.U. after   14 cycles
 SCF Done:  E(RB3LYP) =  -472.087267400     A.U. after   12 cycles
 SCF Done:  E(RB3LYP) =  -472.088812625     A.U. after   12 cycles
 SCF Done:  E(RB3LYP) =  -472.089135658     A.U. after   12 cycles
 SCF Done:  E(RB3LYP) =  -472.089323055     A.U. after   10 cycles
 SCF Done:  E(RB3LYP) =  -472.089361625     A.U. after   10 cycles
 SCF Done:  E(RB3LYP) =  -472.089387760     A.U. after   10 cycles
 SCF Done:  E(RB3LYP) =  -472.089397160     A.U. after   10 cycles
 SCF Done:  E(RB3LYP) =  -472.089404214     A.U. after    9 cycles
 SCF Done:  E(RB3LYP) =  -472.089420158     A.U. after   10 cycles
 SCF Done:  E(RB3LYP) =  -472.094375320     A.U. after   11 cycles
 SCF Done:  E(RB3LYP) =  -472.094414634     A.U. after   11 cycles
 SCF Done:  E(RB3LYP) =  -472.094424456     A.U. after    9 cycles
 SCF Done:  E(RB3LYP) =  -472.094433147     A.U. after    9 cycles
 SCF Done:  E(RB3LYP) =  -472.094438012     A.U. after    9 cycles
 SCF Done:  E(RB3LYP) =  -472.094439041     A.U. after    8 cycles
 SCF Done:  E(RB3LYP) =  -472.094439354     A.U. after    8 cycles
 SCF Done:  E(RB3LYP) =  -472.094439394     A.U. after    6 cycles
 SCF Done:  E(RB3LYP) =  -472.094439421     A.U. after    6 cycles
 Optimization completed.
    -- Stationary point found.
 Normal termination of Gaussian 16 at Tue Jun  1 03:38:35 2021.

 ----------------------------------------------------------------------
 #N Geom=AllCheck Guess=TCheck SCRF=Check GenChk RB3LYP/6-31G(2df,p) Fr
 eq
 ----------------------------------------------------------------------

 Structure from the checkpoint file:  "CCNNCCpdNpNCdN.chk"
 -------------------
 Title Card Required
 -------------------
 Charge =  0 Multiplicity = 1

                         Standard orientation:
 ---------------------------------------------------------------------
 Center     Atomic      Atomic             Coordinates (Angstroms)
 Number     Number       Type             X           Y           Z
 ---------------------------------------------------------------------
      1          6           0       -4.614079   -0.717046   -0.105444
      2          6           0       -3.216004   -0.502018    0.465685
      3          7           0       -2.444081    0.394026   -0.397635
      4          7           0       -1.175279    0.765688    0.122505
      5          6           0       -0.125085   -0.157256   -0.272276
      6          6           0        1.248950    0.470233   -0.056132
      7          7           0        1.486562    1.710188    0.091068
      8          7           0        2.277974   -0.467278   -0.051804
      9          6           0        3.627902   -0.162701    0.047342
     10          7           0        4.603270   -0.979609    0.056289
     11          1           0       -5.187564   -1.402199    0.524688
     12          1           0       -4.559171   -1.133889   -1.114844
     13          1           0       -5.167819    0.227373   -0.158366
     14          1           0       -2.685693   -1.460118    0.524171
     15          1           0       -3.287661   -0.115474    1.500328
     16          1           0       -2.964291    1.253989   -0.543054
     17          1           0       -1.204022    0.847183    1.140382
     18          1           0       -0.264830   -0.364326   -1.339028
     19          1           0       -0.161200   -1.132912    0.245540
     20          1           0        0.601702    2.214997    0.032356
     21          1           0        2.026962   -1.441211   -0.133121
     22          1           0        3.801189    0.908230    0.123099
     23          1           0        4.283172   -1.950008   -0.020156
 ---------------------------------------------------------------------

 SCF Done:  E(RB3LYP) =  -472.094439421     A.U. after    1 cycles

 The electronic state is 1-A.
 Alpha  occ. eigenvalues --  -14.36730 -14.35870 -14.35253 -14.29729 -14.29296
 Alpha  occ. eigenvalues --  -10.26117 -10.24659 -10.22925 -10.22123 -10.19033
 Alpha  occ. eigenvalues --   -0.98880  -0.97434  -0.89648  -0.84678  -0.82748
 Alpha  occ. eigenvalues --   -0.74731  -0.69085  -0.62867  -0.62028  -0.60036
 Alpha  occ. eigenvalues --   -0.53814  -0.51458  -0.49063  -0.48094  -0.45730
 Alpha  occ. eigenvalues --   -0.45004  -0.44519  -0.43071  -0.40821  -0.39541
 Alpha  occ. eigenvalues --   -0.38487  -0.37639  -0.36501  -0.31077  -0.27773
 Alpha  occ. eigenvalues --   -0.25625  -0.25322  -0.24548  -0.23430
 Alpha virt. eigenvalues --   -0.00067   0.06069   0.06800   0.07021   0.08812
 Alpha virt. eigenvalues --    0.10505   0.12087   0.13174   0.13222   0.15143
 Alpha virt. eigenvalues --    0.15708   0.16354   0.17495   0.18571   0.19146

 Mulliken charges:
               1
     1  C   -0.392071
     2  C   -0.105375
     3  N   -0.254158
     4  N   -0.301256
     5  C   -0.209134
     6  C    0.357698
     7  N   -0.499531
     8  N   -0.338672
     9  C    0.152002
    10  N   -0.482383
    11  H    0.123634
    12  H    0.133565
    13  H    0.118267
    14  H    0.108398
    15  H    0.080486
    16  H    0.230694
    17  H    0.215300
    18  H    0.147330
    19  H    0.087934
    20  H    0.229088
    21  H    0.239323
    22  H    0.160467
    23  H    0.198391
 Sum of Mulliken charges =  -0.00000

 Dipole moment (field-independent basis, Debye):
    X=             -5.6740    Y=             -2.2366    Z=              0.6071  Tot=              6.1290
 Quadrupole moment (field-independent basis, Debye-Ang):
   XX=            -78.6627   YY=            -58.8801   ZZ=            -61.7386
   XY=             -4.5781   XZ=             -3.3784   YZ=              0.3932

  Exact polarizability: 130.012  -8.756  92.637   1.626   1.456  62.079
 Approx polarizability: 152.648 -16.166 150.970   3.141   3.311  96.376

                      1                      2                      3
                      A                      A                      A
 Frequencies --     35.1169                60.2204                65.2779
 Red. masses --      3.5472                 2.7897                 3.1026
 Frc consts  --      0.0026                 0.0060                 0.0078
 IR Inten    --      4.4113                 1.4119                 1.7674

                      4                      5                      6
                      A                      A                      A
 Frequencies --    100.4643               139.4224               148.8685
 Red. masses --      2.7418                 1.7357                 3.7395
 Frc consts  --      0.0163                 0.0199                 0.0488
 IR Inten    --      1.7144                 0.3115                 1.7193

                      7                      8                      9
                      A                      A                      A
 Frequencies --    160.3259               242.6354               258.6289
 Red. masses --      3.6769                 1.1900                 4.5946
 Frc consts  --      0.0557                 0.0413                 0.1811
 IR Inten    --      1.8378                 1.0335                 1.9303

                     10                     11                     12
                      A                      A                      A
 Frequencies --    278.2546               329.5106               417.0339
 Red. masses --      2.9175                 3.4509                 3.3863
 Frc consts  --      0.1331                 0.2208                 0.3470
 IR Inten    --      0.6866                 6.6470                 7.3973

                     13                     14                     15
                      A                      A                      A
 Frequencies --    506.0969               510.2051               519.0480
 Red. masses --      1.8846                 2.0187                 3.3919
 Frc consts  --      0.2844                 0.3096                 0.5384
 IR Inten    --     31.9913                18.5138                 3.3390

                     16                     17                     18
                      A                      A                      A
 Frequencies --    583.8312               709.1448               776.7998
 Red. masses --      2.3222                 2.6209                 1.9679
 Frc consts  --      0.4664                 0.7765                 0.6996
 IR Inten    --      2.7873                33.8494                46.2944

                     19                     20                     21
                      A                      A                      A
 Frequencies --    820.8713               853.2993               864.8496
 Red. masses --      1.1198                 1.9549                 1.4538
 Frc consts  --      0.4446                 0.8386                 0.6407
 IR Inten    --      7.2441                36.6139                43.9102

                     22                     23                     24
                      A                      A                      A
 Frequencies --    906.3587               928.7548               956.5946
 Red. masses --      1.1472                 1.3923                 3.3871
 Frc consts  --      0.5553                 0.7076                 1.8261
 IR Inten    --     36.8814                22.0625                 6.9810

                     25                     26                     27
                      A                      A                      A
 Frequencies --    996.8868              1052.0700              1077.7354
 Red. masses --      2.5808                 2.7888                 2.1074
 Frc consts  --      1.5111                 1.8187                 1.4422
 IR Inten    --     10.3797                11.7507                52.1688

                     28                     29                     30
                      A                      A                      A
 Frequencies --   1113.4833              1120.1782              1133.5413
 Red. masses --      1.1189                 2.0573                 1.9579
 Frc consts  --      0.8173                 1.5209                 1.4822
 IR Inten    --     46.3240                24.9313                 4.3699

                     31                     32                     33
                      A                      A                      A
 Frequencies --   1161.5624              1166.6062              1223.1960
 Red. masses --      1.7613                 2.6976                 2.1300
 Frc consts  --      1.4001                 2.1631                 1.8777
 IR Inten    --     40.9029                 9.1656                 6.9106

                     34                     35                     36
                      A                      A                      A
 Frequencies --   1253.9572              1256.3257              1297.3612
 Red. masses --      1.6759                 1.2435                 1.1638
 Frc consts  --      1.5526                 1.1564                 1.1542
 IR Inten    --    251.4258                 1.4047                12.9571

                     37                     38                     39
                      A                      A                      A
 Frequencies --   1315.2824              1378.6332              1385.8478
 Red. masses --      1.4775                 1.3164                 1.3727
 Frc consts  --      1.5060                 1.4742                 1.5533
 IR Inten    --    297.8588                10.7109                 4.1602

                     40                     41                     42
                      A                      A                      A
 Frequencies --   1406.2501              1411.0060              1481.6065
 Red. masses --      1.2965                 1.2769                 1.0831
 Frc consts  --      1.5106                 1.4978                 1.4009
 IR Inten    --     15.4644                 6.0517                 4.9441

                     43                     44                     45
                      A                      A                      A
 Frequencies --   1487.5541              1495.2293              1501.1141
 Red. masses --      1.0794                 1.0638                 1.0713
 Frc consts  --      1.4072                 1.4013                 1.4223
 IR Inten    --      6.4394                 3.0538                 3.5772

                     46                     47                     48
                      A                      A                      A
 Frequencies --   1513.4635              1521.5197              1533.3398
 Red. masses --      1.1706                 2.0332                 1.1410
 Frc consts  --      1.5798                 2.7732                 1.5806
 IR Inten    --      7.2113               136.9078                17.6427

                     49                     50                     51
                      A                      A                      A
 Frequencies --   1716.3353              1738.4752              2920.8554
 Red. masses --      7.3970                 6.2276                 1.0730
 Frc consts  --     12.8383                11.0893                 5.3934
 IR Inten    --    444.2516                67.0035                72.5297

                     52                     53                     54
                      A                      A                      A
 Frequencies --   2933.8042              3036.2006              3045.4713
 Red. masses --      1.0724                 1.0431                 1.0801
 Frc consts  --      5.4385                 5.6655                 5.9022
 IR Inten    --     57.8317                14.1797                30.7345

                     55                     56                     57
                      A                      A                      A
 Frequencies --   3069.0564              3104.8200              3124.6239
 Red. masses --      1.0856                 1.0985                 1.1024
 Frc consts  --      6.0248                 6.2393                 6.3417
 IR Inten    --      6.9506                30.7532                21.2402

                     58                     59                     60
                      A                      A                      A
 Frequencies --   3182.6957              3407.7642              3413.6038
 Red. masses --      1.0909                 1.0733                 1.0737
 Frc consts  --      6.5105                 7.3436                 7.3717
 IR Inten    --      1.5118                 8.8106                 7.4923

                     61                     62                     63
                      A                      A                      A
 Frequencies --   3481.4255              3500.3521              3615.2267
 Red. masses --      1.0729                 1.0750                 1.0761
 Frc consts  --      7.6615                 7.7601                 8.2862
 IR Inten    --     24.6735                 1.6803                15.1468

 - Thermochemistry -
 -------------------
 Temperature   298.150 Kelvin.  Pressure   1.00000 Atm.
 Atom     1 has atomic number  6 and mass  12.00000

 Molecular mass:   143.11710 amu.
 Principal axes and moments of inertia in atomic units:
                           1         2         3
     Eigenvalues --   410.777904332.829504644.24818
           X            0.99999   0.00453  -0.00212
           Y           -0.00452   0.99998   0.00493
           Z            0.00215  -0.00492   0.99999
 This molecule is an asymmetric top.
 Rotational symmetry number  1.
 Rotational temperatures (Kelvin)      0.21085     0.01999     0.01865
 Rotational constants (GHZ):           4.39347     0.41653     0.38860
 Zero-point vibrational energy     524838.1 (Joules/Mol)
                                  125.43931 (Kcal/Mol)
 Warning -- explicit consideration of  16 degrees of freedom as
           vibrations may cause significant error
 Vibrational temperatures:     50.53    86.64    93.92   144.55   200.60
          (Kelvin)            214.19   230.67   349.10   372.11   400.35
                              474.09   600.02   728.16   734.07   746.79
                              840.00  1020.30  1117.64  1181.05  1227.71
                             1244.33  1304.05  1336.27  1376.33  1434.30
                             1513.69  1550.62  1602.05  1611.69  1630.91
                             1671.23  1678.49  1759.91  1804.16  1807.57
                             1866.61  1892.40  1983.55  1993.93  2023.28
                             2030.12  2131.70  2140.26  2151.30  2159.77
                             2177.54  2189.13  2206.13  2469.42  2501.28
                             4202.46  4221.09  4368.42  4381.75  4415.69
                             4467.14  4495.64  4579.19  4903.01  4911.41
                             5008.99  5036.23  5201.50

 Zero-point correction=                           0.199900 (Hartree/Particle)
 Thermal correction to Energy=                    0.211667
 Thermal correction to Enthalpy=                  0.212611
 Thermal correction to Gibbs Free Energy=         0.160919
 Sum of electronic and zero-point Energies=           -471.894539
 Sum of electronic and thermal Energies=              -471.882773
 Sum of electronic and thermal Enthalpies=            -471.881828
 Sum of electronic and thermal Free Energies=         -471.933521

                     E (Thermal)             CV                S
                      KCal/Mol        Cal/Mol-Kelvin    Cal/Mol-Kelvin
 Total                  132.823             41.271            108.796
 Electronic               0.000              0.000              0.000
 Translational            0.889              2.981             40.787
 Rotational               0.889              2.981             30.492
 Vibrational            131.046             35.310             37.517
 Vibration     1          0.594              1.982              5.517
 Vibration     2          0.597              1.973              4.450
 Vibration     3          0.597              1.971              4.291
 Vibration     4          0.604              1.949              3.445
 Vibration     5          0.615              1.914              2.812
 Vibration     6          0.618              1.904              2.687
 Vibration     7          0.622              1.891              2.546
 Vibration     8          0.659              1.775              1.783
 Vibration     9          0.667              1.748              1.671
 Vibration    10          0.679              1.714              1.544
 Vibration    11          0.712              1.617              1.262
 Vibration    12          0.780              1.433              0.902
 Vibration    13          0.861              1.236              0.643
 Vibration    14          0.865              1.227              0.633
 Vibration    15          0.874              1.208              0.612
 Vibration    16          0.941              1.066              0.478

 Optimization completed.
    -- Stationary point found.
 Normal termination of Gaussian 16 at Tue Jun  1 04:11:00 2021.
