 Gaussian 16, Revision A.03,
 Gaussian 16:  ES64L-G16RevA.03 25-Dec-2016

 -----------------------------
 # opt freq b3lyp/6-31g(2df,p)
 -----------------------------

 -------------------
 Title Card Required
 -------------------
 Symbolic Z-matrix:
 Charge =  0 Multiplicity = 1

 SCF Done:  E(RB3LYP) =  -487.982314214     A.U. after   16 cycles
 SCF Done:  E(RB3LYP) =  -487.995767030     A.U. after   13 cycles
 SCF Done:  E(RB3LYP) =  -488.005682011     A.U. after   14 cycles
 SCF Done:  E(RB3LYP) =  -488.008403784     A.U. after   12 cycles
 SCF Done:  E(RB3LYP) =  -488.011475737     A.U. after   14 cycles
 SCF Done:  E(RB3LYP) =  -488.013172272     A.U. after   16 cycles
 SCF Done:  E(RB3LYP) =  -488.004287662     A.U. after   13 cycles
 SCF Done:  E(RB3LYP) =  -488.007931932     A.U. after   14 cycles
 SCF Done:  E(RB3LYP) =  -488.015022598     A.U. after   11 cycles
 SCF Done:  E(RB3LYP) =  -488.016403705     A.U. after   12 cycles
 SCF Done:  E(RB3LYP) =  -488.038333846     A.U. after   15 cycles
 SCF Done:  E(RB3LYP) =  -488.038973937     A.U. after   12 cycles
 SCF Done:  E(RB3LYP) =  -488.039041819     A.U. after   12 cycles
 SCF Done:  E(RB3LYP) =  -488.039064777     A.U. after   10 cycles
 SCF Done:  E(RB3LYP) =  -488.039074305     A.U. after   10 cycles
 SCF Done:  E(RB3LYP) =  -488.039076614     A.U. after    9 cycles
 SCF Done:  E(RB3LYP) =  -488.039077543     A.U. after    8 cycles
 SCF Done:  E(RB3LYP) =  -488.039078002     A.U. after    8 cycles
 SCF Done:  E(RB3LYP) =  -488.039078063     A.U. after    7 cycles
 Optimization completed.
    -- Stationary point found.
 Normal termination of Gaussian 16 at Mon May 31 22:26:07 2021.

 ----------------------------------------------------------------------
 #N Geom=AllCheck Guess=TCheck SCRF=Check GenChk RB3LYP/6-31G(2df,p) Fr
 eq
 ----------------------------------------------------------------------

 Structure from the checkpoint file:  "CCNNpNdNpNCCdN.chk"
 -------------------
 Title Card Required
 -------------------
 Charge =  0 Multiplicity = 1

                         Standard orientation:
 ---------------------------------------------------------------------
 Center     Atomic      Atomic             Coordinates (Angstroms)
 Number     Number       Type             X           Y           Z
 ---------------------------------------------------------------------
      1          6           0        3.301291   -1.780549    0.058422
      2          6           0        1.986145   -1.184887   -0.432086
      3          7           0        1.600112   -0.068072    0.440107
      4          7           0        0.396829    0.540417   -0.008802
      5          7           0        0.331184    1.883843   -0.041923
      6          7           0        1.449720    2.461574   -0.076853
      7          7           0       -0.752541   -0.090773    0.494780
      8          6           0       -1.872832   -0.020897   -0.441348
      9          6           0       -2.990808   -0.918024    0.037408
     10          7           0       -4.228542   -0.647408    0.086096
     11          1           0        3.583943   -2.638476   -0.558033
     12          1           0        3.213525   -2.110752    1.097148
     13          1           0        4.114536   -1.048271    0.002387
     14          1           0        1.188352   -1.932496   -0.374363
     15          1           0        2.070192   -0.874002   -1.484848
     16          1           0        2.286947    0.684926    0.376998
     17          1           0        1.240211    3.460632   -0.155875
     18          1           0       -0.999649    0.324393    1.391925
     19          1           0       -1.502691   -0.396441   -1.404051
     20          1           0       -2.248245    0.999591   -0.608997
     21          1           0       -2.668378   -1.912711    0.362308
     22          1           0       -4.398853    0.312686   -0.232816
 ---------------------------------------------------------------------

 SCF Done:  E(RB3LYP) =  -488.039078063     A.U. after    1 cycles

 The electronic state is 1-A.
 Alpha  occ. eigenvalues --  -14.43023 -14.41439 -14.36835 -14.35265 -14.35154
 Alpha  occ. eigenvalues --  -14.32282 -10.23374 -10.22699 -10.21179 -10.18065
 Alpha  occ. eigenvalues --   -1.09917  -0.98310  -0.91817  -0.89951  -0.81444
 Alpha  occ. eigenvalues --   -0.74040  -0.71428  -0.62506  -0.61820  -0.59609
 Alpha  occ. eigenvalues --   -0.53751  -0.52145  -0.50278  -0.47671  -0.46690
 Alpha  occ. eigenvalues --   -0.45198  -0.42923  -0.42461  -0.40816  -0.40090
 Alpha  occ. eigenvalues --   -0.37699  -0.37274  -0.35733  -0.32046  -0.30086
 Alpha  occ. eigenvalues --   -0.27279  -0.26554  -0.25219  -0.21768
 Alpha virt. eigenvalues --   -0.03188  -0.00923   0.09119   0.09431   0.10417
 Alpha virt. eigenvalues --    0.11033   0.12172   0.14123   0.14668   0.14985
 Alpha virt. eigenvalues --    0.15685   0.16758   0.17628   0.19075   0.19410

 Mulliken charges:
               1
     1  C   -0.395394
     2  C   -0.087178
     3  N   -0.257590
     4  N    0.011373
     5  N   -0.063141
     6  N   -0.367502
     7  N   -0.239883
     8  C   -0.175687
     9  C    0.050891
    10  N   -0.379822
    11  H    0.120175
    12  H    0.132213
    13  H    0.120257
    14  H    0.116408
    15  H    0.094404
    16  H    0.254935
    17  H    0.247555
    18  H    0.237402
    19  H    0.133997
    20  H    0.108001
    21  H    0.119739
    22  H    0.218847
 Sum of Mulliken charges =  -0.00000

 Dipole moment (field-independent basis, Debye):
    X=              1.4629    Y=              0.9714    Z=             -0.8449  Tot=              1.9487
 Quadrupole moment (field-independent basis, Debye-Ang):
   XX=            -70.6045   YY=            -56.9486   ZZ=            -60.2701
   XY=             -7.3421   XZ=              0.8965   YZ=              1.4907

  Exact polarizability: 112.967   1.470 102.854  -1.124  -2.915  61.452
 Approx polarizability: 149.669   8.355 154.370  -1.998  -4.986  95.441

                      1                      2                      3
                      A                      A                      A
 Frequencies --     41.6560                55.3254                73.2056
 Red. masses --      4.2773                 2.9926                 2.4915
 Frc consts  --      0.0044                 0.0054                 0.0079
 IR Inten    --      0.5758                 0.1044                 6.1367

                      4                      5                      6
                      A                      A                      A
 Frequencies --     84.2463                98.4094               126.2601
 Red. masses --      1.7527                 3.1907                 3.6850
 Frc consts  --      0.0073                 0.0182                 0.0346
 IR Inten    --      0.1707                 3.1879                 3.7945

                      7                      8                      9
                      A                      A                      A
 Frequencies --    228.9460               244.5588               283.5678
 Red. masses --      2.9244                 1.1851                 3.6449
 Frc consts  --      0.0903                 0.0418                 0.1727
 IR Inten    --      1.5546                 0.6636                12.9690

                     10                     11                     12
                      A                      A                      A
 Frequencies --    306.5405               322.1433               404.6962
 Red. masses --      3.9424                 4.7342                 3.6875
 Frc consts  --      0.2183                 0.2895                 0.3558
 IR Inten    --      4.3923                 2.2518                20.7438

                     13                     14                     15
                      A                      A                      A
 Frequencies --    428.8253               490.8407               568.6965
 Red. masses --      4.5947                 3.1627                 3.1258
 Frc consts  --      0.4978                 0.4489                 0.5956
 IR Inten    --     33.2838                35.1222                 9.8062

                     16                     17                     18
                      A                      A                      A
 Frequencies --    699.3249               740.9386               786.3301
 Red. masses --      2.7125                 2.3274                 2.6084
 Frc consts  --      0.7816                 0.7528                 0.9502
 IR Inten    --     11.4497                41.1379                43.2728

                     19                     20                     21
                      A                      A                      A
 Frequencies --    818.7072               836.8614               906.5767
 Red. masses --      1.1386                 1.4023                 1.3464
 Frc consts  --      0.4497                 0.5786                 0.6520
 IR Inten    --      8.4425                 9.8092                29.1756

                     22                     23                     24
                      A                      A                      A
 Frequencies --    917.8751               944.2946              1009.5897
 Red. masses --      1.6084                 1.5283                 2.4725
 Frc consts  --      0.7984                 0.8029                 1.4848
 IR Inten    --     71.7439                 2.2215                34.6198

                     25                     26                     27
                      A                      A                      A
 Frequencies --   1044.0095              1068.3231              1116.2936
 Red. masses --      2.1590                 2.9962                 2.5602
 Frc consts  --      1.3865                 2.0147                 1.8797
 IR Inten    --     16.9514                21.4798                 2.0210

                     28                     29                     30
                      A                      A                      A
 Frequencies --   1136.8273              1153.0521              1154.7657
 Red. masses --      2.9603                 2.0289                 1.1464
 Frc consts  --      2.2541                 1.5893                 0.9007
 IR Inten    --     61.9326                17.8388                56.0910

                     31                     32                     33
                      A                      A                      A
 Frequencies --   1176.5779              1222.8488              1266.3446
 Red. masses --      2.8873                 1.3828                 1.6783
 Frc consts  --      2.3550                 1.2183                 1.5857
 IR Inten    --     39.8142                26.4731                70.5983

                     34                     35                     36
                      A                      A                      A
 Frequencies --   1283.2425              1314.9489              1351.8696
 Red. masses --      1.2917                 1.4887                 1.3670
 Frc consts  --      1.2533                 1.5166                 1.4719
 IR Inten    --     19.3758                 7.0788                28.7633

                     37                     38                     39
                      A                      A                      A
 Frequencies --   1380.0042              1412.2301              1412.5979
 Red. masses --      1.3171                 1.2537                 1.2896
 Frc consts  --      1.4778                 1.4732                 1.5162
 IR Inten    --     17.6177                23.0153                 5.0969

                     40                     41                     42
                      A                      A                      A
 Frequencies --   1452.2071              1480.5739              1489.6190
 Red. masses --      1.3684                 1.4544                 1.0595
 Frc consts  --      1.7002                 1.8785                 1.3852
 IR Inten    --     11.8146                64.2513                 2.6468

                     43                     44                     45
                      A                      A                      A
 Frequencies --   1494.2661              1499.8480              1520.8021
 Red. masses --      1.1347                 1.0410                 1.1162
 Frc consts  --      1.4927                 1.3797                 1.5211
 IR Inten    --      3.8162                 4.7614                 0.5012

                     46                     47                     48
                      A                      A                      A
 Frequencies --   1535.5990              1557.7495              1733.7323
 Red. masses --      1.2749                 2.7410                 8.4979
 Frc consts  --      1.7713                 3.9188                15.0496
 IR Inten    --     16.3969               101.7188                55.1459

                     49                     50                     51
                      A                      A                      A
 Frequencies --   2985.0976              2993.7233              3037.6819
 Red. masses --      1.0700                 1.0635                 1.0375
 Frc consts  --      5.6178                 5.6161                 5.6405
 IR Inten    --     48.1146                33.7165                20.0911

                     52                     53                     54
                      A                      A                      A
 Frequencies --   3051.2915              3068.6275              3086.7167
 Red. masses --      1.0955                 1.0905                 1.0887
 Frc consts  --      6.0095                 6.0500                 6.1114
 IR Inten    --      8.0329                10.9123                26.8587

                     55                     56                     57
                      A                      A                      A
 Frequencies --   3106.6731              3123.2918              3399.8129
 Red. masses --      1.0996                 1.1024                 1.0735
 Frc consts  --      6.2526                 6.3357                 7.3111
 IR Inten    --     33.8423                23.2416                 3.9700

                     58                     59                     60
                      A                      A                      A
 Frequencies --   3409.9634              3447.1761              3456.6777
 Red. masses --      1.0752                 1.0721                 1.0748
 Frc consts  --      7.3661                 7.5061                 7.5664
 IR Inten    --      0.1822                24.4383                 8.6316

 - Thermochemistry -
 -------------------
 Temperature   298.150 Kelvin.  Pressure   1.00000 Atm.
 Atom     1 has atomic number  6 and mass  12.00000

 Molecular mass:   144.11234 amu.
 Principal axes and moments of inertia in atomic units:
                           1         2         3
     Eigenvalues --   939.901322724.002663524.44138
           X            0.99941  -0.03434   0.00099
           Y            0.03433   0.99941   0.00251
           Z           -0.00108  -0.00247   1.00000
 This molecule is an asymmetric top.
 Rotational symmetry number  1.
 Warning -- assumption of classical behavior for rotation
           may cause significant error
 Rotational temperatures (Kelvin)      0.09215     0.03180     0.02458
 Rotational constants (GHZ):           1.92014     0.66253     0.51206
 Zero-point vibrational energy     489532.7 (Joules/Mol)
                                  117.00113 (Kcal/Mol)
 Warning -- explicit consideration of  15 degrees of freedom as
           vibrations may cause significant error
 Vibrational temperatures:     59.93    79.60   105.33   121.21   141.59
          (Kelvin)            181.66   329.40   351.87   407.99   441.04
                              463.49   582.27   616.98   706.21   818.23
                             1006.17  1066.05  1131.35  1177.94  1204.06
                             1304.36  1320.62  1358.63  1452.57  1502.10
                             1537.08  1606.10  1635.64  1658.98  1661.45
                             1692.83  1759.41  1821.99  1846.30  1891.92
                             1945.04  1985.52  2031.88  2032.41  2089.40
                             2130.22  2143.23  2149.92  2157.95  2188.10
                             2209.38  2241.25  2494.45  4294.89  4307.30
                             4370.55  4390.13  4415.07  4441.10  4469.81
                             4493.72  4891.57  4906.18  4959.72  4973.39

 Zero-point correction=                           0.186453 (Hartree/Particle)
 Thermal correction to Energy=                    0.198095
 Thermal correction to Enthalpy=                  0.199039
 Thermal correction to Gibbs Free Energy=         0.147390
 Sum of electronic and zero-point Energies=           -487.852625
 Sum of electronic and thermal Energies=              -487.840983
 Sum of electronic and thermal Enthalpies=            -487.840039
 Sum of electronic and thermal Free Energies=         -487.891688

                     E (Thermal)             CV                S
                      KCal/Mol        Cal/Mol-Kelvin    Cal/Mol-Kelvin
 Total                  124.307             40.342            108.706
 Electronic               0.000              0.000              0.000
 Translational            0.889              2.981             40.807
 Rotational               0.889              2.981             30.579
 Vibrational            122.529             34.380             37.320
 Vibration     1          0.594              1.981              5.179
 Vibration     2          0.596              1.975              4.617
 Vibration     3          0.599              1.967              4.065
 Vibration     4          0.601              1.960              3.789
 Vibration     5          0.604              1.950              3.486
 Vibration     6          0.611              1.927              3.002
 Vibration     7          0.652              1.797              1.887
 Vibration     8          0.660              1.772              1.769
 Vibration     9          0.682              1.704              1.512
 Vibration    10          0.697              1.661              1.381
 Vibration    11          0.707              1.631              1.299
 Vibration    12          0.770              1.460              0.946
 Vibration    13          0.790              1.407              0.862
 Vibration    14          0.847              1.270              0.681
 Vibration    15          0.925              1.099              0.507

 Optimization completed.
    -- Stationary point found.
 Normal termination of Gaussian 16 at Mon May 31 22:59:48 2021.
