 Gaussian 16, Revision A.03,
 Gaussian 16:  ES64L-G16RevA.03 25-Dec-2016

 -----------------------------
 # opt freq b3lyp/6-31g(2df,p)
 -----------------------------

 -------------------
 Title Card Required
 -------------------
 Symbolic Z-matrix:
 Charge =  0 Multiplicity = 1

 SCF Done:  E(RB3LYP) =  -395.789907181     A.U. after   12 cycles
 SCF Done:  E(RB3LYP) =  -395.805174088     A.U. after   11 cycles
 SCF Done:  E(RB3LYP) =  -395.809159058     A.U. after   11 cycles
 SCF Done:  E(RB3LYP) =  -395.810173165     A.U. after   11 cycles
 SCF Done:  E(RB3LYP) =  -395.810461184     A.U. after   10 cycles
 SCF Done:  E(RB3LYP) =  -395.810549647     A.U. after    9 cycles
 SCF Done:  E(RB3LYP) =  -395.810570970     A.U. after    9 cycles
 SCF Done:  E(RB3LYP) =  -395.810588438     A.U. after    9 cycles
 SCF Done:  E(RB3LYP) =  -395.810701263     A.U. after   11 cycles
 SCF Done:  E(RB3LYP) =  -395.768210585     A.U. after   12 cycles
 SCF Done:  E(RB3LYP) =  -395.815449882     A.U. after   12 cycles
 SCF Done:  E(RB3LYP) =  -395.815905817     A.U. after   10 cycles
 SCF Done:  E(RB3LYP) =  -395.816268688     A.U. after   10 cycles
 SCF Done:  E(RB3LYP) =  -395.816330541     A.U. after   10 cycles
 SCF Done:  E(RB3LYP) =  -395.816340479     A.U. after    9 cycles
 SCF Done:  E(RB3LYP) =  -395.816343040     A.U. after    7 cycles
 SCF Done:  E(RB3LYP) =  -395.816344542     A.U. after    7 cycles
 SCF Done:  E(RB3LYP) =  -395.816344819     A.U. after    7 cycles
 SCF Done:  E(RB3LYP) =  -395.816344930     A.U. after    6 cycles
 Optimization completed.
    -- Stationary point found.
 Normal termination of Gaussian 16 at Tue Jun  1 06:03:22 2021.

 ----------------------------------------------------------------------
 #N Geom=AllCheck Guess=TCheck SCRF=Check GenChk RB3LYP/6-31G(2df,p) Fr
 eq
 ----------------------------------------------------------------------

 Structure from the checkpoint file:  "CCNNNpNpCN.chk"
 -------------------
 Title Card Required
 -------------------
 Charge =  0 Multiplicity = 1

                         Standard orientation:
 ---------------------------------------------------------------------
 Center     Atomic      Atomic             Coordinates (Angstroms)
 Number     Number       Type             X           Y           Z
 ---------------------------------------------------------------------
      1          6           0       -3.447230   -0.228342   -0.630722
      2          6           0       -2.096674   -0.660023   -0.068437
      3          7           0       -1.366245    0.487649    0.468324
      4          7           0       -0.100613    0.175589    1.039147
      5          7           0        0.846481    0.102386   -0.070631
      6          7           0        1.168150    1.501434   -0.368947
      7          6           0        2.073813   -0.499157    0.445109
      8          7           0        3.001290   -0.644847   -0.666158
      9          1           0       -3.983737   -1.084617   -1.049576
     10          1           0       -3.315766    0.519746   -1.417506
     11          1           0       -4.080639    0.209947    0.149349
     12          1           0       -1.472329   -1.090487   -0.857965
     13          1           0       -2.242273   -1.448170    0.695748
     14          1           0       -1.897653    0.954761    1.194906
     15          1           0       -0.129643   -0.790004    1.385872
     16          1           0        0.301448    1.848150   -0.779636
     17          1           0        1.821719    1.413436   -1.147632
     18          1           0        1.784885   -1.451962    0.921046
     19          1           0        2.539070    0.145991    1.205699
     20          1           0        2.717179   -1.414377   -1.263328
     21          1           0        3.934847   -0.842760   -0.324826
 ---------------------------------------------------------------------

 SCF Done:  E(RB3LYP) =  -395.816344930     A.U. after    1 cycles

 The electronic state is 1-A.
 Alpha  occ. eigenvalues --  -14.35710 -14.35402 -14.33467 -14.31353 -14.30910
 Alpha  occ. eigenvalues --  -10.22523 -10.20387 -10.17743  -1.00828  -0.92208
 Alpha  occ. eigenvalues --   -0.87001  -0.80578  -0.74506  -0.68456  -0.61279
 Alpha  occ. eigenvalues --   -0.59997  -0.52042  -0.49579  -0.49414  -0.47130
 Alpha  occ. eigenvalues --   -0.43634  -0.42832  -0.41802  -0.40435  -0.38557
 Alpha  occ. eigenvalues --   -0.37443  -0.36052  -0.34890  -0.32969  -0.25627
 Alpha  occ. eigenvalues --   -0.24403  -0.23310  -0.17475
 Alpha virt. eigenvalues --    0.07943   0.09039   0.09928   0.13016   0.13397
 Alpha virt. eigenvalues --    0.14210   0.14802   0.15183   0.15958   0.17477
 Alpha virt. eigenvalues --    0.18125   0.18871   0.20422   0.20590   0.21393

 Mulliken charges:
               1
     1  C   -0.387608
     2  C   -0.102756
     3  N   -0.245084
     4  N   -0.247941
     5  N   -0.102950
     6  N   -0.442823
     7  C   -0.061774
     8  N   -0.506297
     9  H    0.117475
    10  H    0.129081
    11  H    0.112864
    12  H    0.120178
    13  H    0.071170
    14  H    0.227253
    15  H    0.205196
    16  H    0.236236
    17  H    0.240177
    18  H    0.072328
    19  H    0.104357
    20  H    0.229372
    21  H    0.231547
 Sum of Mulliken charges =  -0.00000

 Dipole moment (field-independent basis, Debye):
    X=             -0.5234    Y=             -2.6172    Z=             -0.1259  Tot=              2.6720
 Quadrupole moment (field-independent basis, Debye-Ang):
   XX=            -42.9738   YY=            -49.9710   ZZ=            -49.7450
   XY=             -5.3532   XZ=             -1.5312   YZ=             -1.9926

  Exact polarizability:  95.813  -1.487  67.164  -1.132  -3.012  64.041
 Approx polarizability: 113.163  -1.959  99.298  -2.982  -4.997  95.243

                      1                      2                      3
                      A                      A                      A
 Frequencies --     57.1804                72.1766               109.7108
 Red. masses --      3.5214                 2.8770                 1.7545
 Frc consts  --      0.0068                 0.0088                 0.0124
 IR Inten    --      0.5535                 0.2178                 1.5750

                      4                      5                      6
                      A                      A                      A
 Frequencies --    164.7635               201.8499               236.7712
 Red. masses --      2.2882                 1.0952                 1.6305
 Frc consts  --      0.0366                 0.0263                 0.0539
 IR Inten    --     11.1115                30.5455                 3.7883

                      7                      8                      9
                      A                      A                      A
 Frequencies --    259.9298               274.9696               279.3931
 Red. masses --      1.6839                 1.2955                 2.8105
 Frc consts  --      0.0670                 0.0577                 0.1293
 IR Inten    --     20.8749                46.2081                 1.0319

                     10                     11                     12
                      A                      A                      A
 Frequencies --    338.9142               411.0564               496.4778
 Red. masses --      2.9748                 3.4754                 3.2607
 Frc consts  --      0.2013                 0.3460                 0.4735
 IR Inten    --      3.3451                 6.8159                 7.3208

                     13                     14                     15
                      A                      A                      A
 Frequencies --    567.7513               609.5805               748.0323
 Red. masses --      3.1817                 3.1289                 1.7947
 Frc consts  --      0.6043                 0.6850                 0.5917
 IR Inten    --     15.6981                27.4512                47.4168

                     16                     17                     18
                      A                      A                      A
 Frequencies --    819.2396               827.7727               874.5879
 Red. masses --      1.3615                 1.3232                 2.4703
 Frc consts  --      0.5384                 0.5342                 1.1133
 IR Inten    --     50.8741                58.7430                29.9698

                     19                     20                     21
                      A                      A                      A
 Frequencies --    899.1292               934.8291               990.2594
 Red. masses --      2.2138                 1.7100                 1.7809
 Frc consts  --      1.0545                 0.8805                 1.0289
 IR Inten    --     48.0183                 4.6774                12.5007

                     22                     23                     24
                      A                      A                      A
 Frequencies --   1034.2124              1055.8666              1086.8132
 Red. masses --      2.5239                 2.0956                 3.2266
 Frc consts  --      1.5905                 1.3765                 2.2455
 IR Inten    --      5.3241                 2.2180                18.9943

                     25                     26                     27
                      A                      A                      A
 Frequencies --   1114.2429              1150.4410              1169.1613
 Red. masses --      2.3214                 2.4222                 1.3187
 Frc consts  --      1.6981                 1.8888                 1.0621
 IR Inten    --     24.3201                26.5539                60.2282

                     28                     29                     30
                      A                      A                      A
 Frequencies --   1211.9100              1223.7278              1241.2153
 Red. masses --      1.8847                 1.9957                 1.3688
 Frc consts  --      1.6310                 1.7608                 1.2425
 IR Inten    --     24.9285                23.8459                 2.1829

                     31                     32                     33
                      A                      A                      A
 Frequencies --   1292.6274              1338.2215              1374.7214
 Red. masses --      1.1665                 1.2396                 1.2870
 Frc consts  --      1.1484                 1.3079                 1.4330
 IR Inten    --      6.9625                 2.4670                 9.0398

                     34                     35                     36
                      A                      A                      A
 Frequencies --   1387.7516              1410.4623              1440.4757
 Red. masses --      1.2749                 1.2898                 1.4105
 Frc consts  --      1.4466                 1.5118                 1.7244
 IR Inten    --      2.2619                 5.7078                31.0660

                     37                     38                     39
                      A                      A                      A
 Frequencies --   1476.6506              1495.9454              1498.4720
 Red. masses --      1.1078                 1.0671                 1.0718
 Frc consts  --      1.4232                 1.4070                 1.4179
 IR Inten    --      2.4250                 7.0689                 2.5071

                     40                     41                     42
                      A                      A                      A
 Frequencies --   1499.4651              1511.8439              1529.5401
 Red. masses --      1.0825                 1.1195                 1.1176
 Frc consts  --      1.4340                 1.5077                 1.5405
 IR Inten    --      3.2847                 0.2719                 5.0184

                     43                     44                     45
                      A                      A                      A
 Frequencies --   1620.1578              1644.4603              2912.8362
 Red. masses --      1.0701                 1.0997                 1.0730
 Frc consts  --      1.6549                 1.7522                 5.3637
 IR Inten    --     50.3818                29.5164                75.5595

                     46                     47                     48
                      A                      A                      A
 Frequencies --   2943.2448              3008.1741              3033.5961
 Red. masses --      1.0627                 1.0965                 1.0380
 Frc consts  --      5.4241                 5.8459                 5.6283
 IR Inten    --     79.4642                52.0005                24.9585

                     49                     50                     51
                      A                      A                      A
 Frequencies --   3070.9785              3101.8061              3120.2135
 Red. masses --      1.0857                 1.0981                 1.1023
 Frc consts  --      6.0329                 6.2245                 6.3229
 IR Inten    --      5.1946                37.1693                24.8916

                     52                     53                     54
                      A                      A                      A
 Frequencies --   3340.0148              3442.6007              3510.1081
 Red. masses --      1.0724                 1.0492                 1.0492
 Frc consts  --      7.0485                 7.3262                 7.6165
 IR Inten    --     15.3396                 1.0643                 0.1780

                     55                     56                     57
                      A                      A                      A
 Frequencies --   3524.5578              3529.3984              3598.4065
 Red. masses --      1.0909                 1.0749                 1.0931
 Frc consts  --      7.9848                 7.8892                 8.3391
 IR Inten    --      8.3350                 1.0214                 1.3611

 - Thermochemistry -
 -------------------
 Temperature   298.150 Kelvin.  Pressure   1.00000 Atm.
 Atom     1 has atomic number  6 and mass  12.00000

 Molecular mass:   119.11710 amu.
 Principal axes and moments of inertia in atomic units:
                           1         2         3
     Eigenvalues --   407.275912022.989112093.58499
           X            0.99997  -0.00213   0.00703
           Y            0.00274   0.99618  -0.08734
           Z           -0.00682   0.08735   0.99615
 This molecule is an asymmetric top.
 Rotational symmetry number  1.
 Rotational temperatures (Kelvin)      0.21267     0.04281     0.04137
 Rotational constants (GHZ):           4.43125     0.89212     0.86203
 Zero-point vibrational energy     497160.2 (Joules/Mol)
                                  118.82414 (Kcal/Mol)
 Warning -- explicit consideration of  14 degrees of freedom as
           vibrations may cause significant error
 Vibrational temperatures:     82.27   103.85   157.85   237.06   290.42
          (Kelvin)            340.66   373.98   395.62   401.98   487.62
                              591.42   714.32   816.87   877.05  1076.25
                             1178.70  1190.98  1258.34  1293.65  1345.01
                             1424.76  1488.00  1519.16  1563.68  1603.15
                             1655.23  1682.16  1743.67  1760.67  1785.83
                             1859.80  1925.40  1977.92  1996.66  2029.34
                             2072.52  2124.57  2152.33  2155.97  2157.40
                             2175.21  2200.67  2331.05  2366.01  4190.92
                             4234.67  4328.09  4364.67  4418.45  4462.81
                             4489.29  4805.54  4953.13  5050.26  5071.05
                             5078.02  5177.30

 Zero-point correction=                           0.189358 (Hartree/Particle)
 Thermal correction to Energy=                    0.199522
 Thermal correction to Enthalpy=                  0.200466
 Thermal correction to Gibbs Free Energy=         0.153956
 Sum of electronic and zero-point Energies=           -395.626987
 Sum of electronic and thermal Energies=              -395.616823
 Sum of electronic and thermal Enthalpies=            -395.615879
 Sum of electronic and thermal Free Energies=         -395.662389

                     E (Thermal)             CV                S
                      KCal/Mol        Cal/Mol-Kelvin    Cal/Mol-Kelvin
 Total                  125.202             36.286             97.887
 Electronic               0.000              0.000              0.000
 Translational            0.889              2.981             40.239
 Rotational               0.889              2.981             28.935
 Vibrational            123.424             30.324             28.712
 Vibration     1          0.596              1.975              4.552
 Vibration     2          0.598              1.967              4.093
 Vibration     3          0.606              1.941              3.274
 Vibration     4          0.623              1.886              2.494
 Vibration     5          0.639              1.837              2.116
 Vibration     6          0.656              1.784              1.827
 Vibration     7          0.668              1.746              1.662
 Vibration     8          0.677              1.720              1.565
 Vibration     9          0.680              1.712              1.537
 Vibration    10          0.719              1.598              1.217
 Vibration    11          0.775              1.446              0.923
 Vibration    12          0.852              1.258              0.667
 Vibration    13          0.924              1.101              0.509
 Vibration    14          0.969              1.012              0.433

                           ! Non-Optimized Parameters !
 Normal termination of Gaussian 16 at Tue Jun  1 06:28:40 2021.
