 Gaussian 16, Revision A.03,
 Gaussian 16:  ES64L-G16RevA.03 25-Dec-2016

 -----------------------------
 # opt freq b3lyp/6-31g(2df,p)
 -----------------------------

 -------------------
 Title Card Required
 -------------------
 Symbolic Z-matrix:
 Charge =  0 Multiplicity = 1

 SCF Done:  E(RB3LYP) =  -419.093421942     A.U. after   12 cycles
 SCF Done:  E(RB3LYP) =  -419.105382702     A.U. after   11 cycles
 SCF Done:  E(RB3LYP) =  -419.109825107     A.U. after   11 cycles
 SCF Done:  E(RB3LYP) =  -419.113882657     A.U. after   12 cycles
 SCF Done:  E(RB3LYP) =  -419.119257206     A.U. after   13 cycles
 SCF Done:  E(RB3LYP) =  -419.122661894     A.U. after   12 cycles
 SCF Done:  E(RB3LYP) =  -419.121964775     A.U. after   11 cycles
 SCF Done:  E(RB3LYP) =  -419.124364145     A.U. after   10 cycles
 SCF Done:  E(RB3LYP) =  -419.124463876     A.U. after   10 cycles
 SCF Done:  E(RB3LYP) =  -419.124502227     A.U. after    9 cycles
 SCF Done:  E(RB3LYP) =  -419.124508190     A.U. after    7 cycles
 SCF Done:  E(RB3LYP) =  -419.124511541     A.U. after    8 cycles
 SCF Done:  E(RB3LYP) =  -419.124513982     A.U. after    9 cycles
 SCF Done:  E(RB3LYP) =  -419.124515136     A.U. after    8 cycles
 SCF Done:  E(RB3LYP) =  -419.124515745     A.U. after    8 cycles
 SCF Done:  E(RB3LYP) =  -419.124515919     A.U. after    7 cycles
 SCF Done:  E(RB3LYP) =  -419.124516034     A.U. after    7 cycles
 SCF Done:  E(RB3LYP) =  -419.124516075     A.U. after    6 cycles
 Optimization completed.
    -- Stationary point found.
 Normal termination of Gaussian 16 at Tue Jun  1 02:13:01 2021.

 ----------------------------------------------------------------------
 #N Geom=AllCheck Guess=TCheck SCRF=Check GenChk RB3LYP/6-31G(2df,p) Fr
 eq
 ----------------------------------------------------------------------

 Structure from the checkpoint file:  "CCNNNpCCpCN.chk"
 -------------------
 Title Card Required
 -------------------
 Charge =  0 Multiplicity = 1

                         Standard orientation:
 ---------------------------------------------------------------------
 Center     Atomic      Atomic             Coordinates (Angstroms)
 Number     Number       Type             X           Y           Z
 ---------------------------------------------------------------------
      1          6           0       -3.799033   -0.279437   -0.485451
      2          6           0       -2.651872    0.255012    0.366638
      3          7           0       -1.378554   -0.296796   -0.101684
      4          7           0       -0.288768    0.363822    0.630242
      5          7           0        0.930751   -0.028375    0.013706
      6          6           0        1.956045    0.987818    0.257189
      7          6           0        1.668611    2.287234   -0.486929
      8          6           0        1.345309   -1.379538    0.393323
      9          7           0        2.375331   -1.850244   -0.524659
     10          1           0       -4.759612    0.088024   -0.113224
     11          1           0       -3.814999   -1.372923   -0.473124
     12          1           0       -3.700909    0.045162   -1.527725
     13          1           0       -2.791701   -0.061352    1.409305
     14          1           0       -2.646522    1.357126    0.370195
     15          1           0       -1.225069    0.027667   -1.055299
     16          1           0       -0.333833   -0.059986    1.565465
     17          1           0        2.897498    0.549878   -0.084100
     18          1           0        2.061474    1.186385    1.340168
     19          1           0        1.634583    2.112204   -1.566707
     20          1           0        2.449784    3.026071   -0.281356
     21          1           0        0.707824    2.702642   -0.173949
     22          1           0        0.426478   -1.981196    0.395194
     23          1           0        1.775117   -1.401656    1.413854
     24          1           0        1.957179   -2.046821   -1.428951
     25          1           0        2.777032   -2.716606   -0.181606
 ---------------------------------------------------------------------

 SCF Done:  E(RB3LYP) =  -419.124516075     A.U. after    1 cycles

 The electronic state is 1-A.
 Alpha  occ. eigenvalues --  -14.35712 -14.33527 -14.32949 -14.30814 -10.22227
 Alpha  occ. eigenvalues --  -10.20109 -10.19011 -10.17508 -10.15836  -0.99611
 Alpha  occ. eigenvalues --   -0.90044  -0.85824  -0.77051  -0.72519  -0.69289
 Alpha  occ. eigenvalues --   -0.63227  -0.60846  -0.57741  -0.50948  -0.48288
 Alpha  occ. eigenvalues --   -0.47644  -0.45843  -0.44633  -0.42746  -0.42098
 Alpha  occ. eigenvalues --   -0.41134  -0.38994  -0.37011  -0.36582  -0.35140
 Alpha  occ. eigenvalues --   -0.34951  -0.34701  -0.32920  -0.30182  -0.24076
 Alpha  occ. eigenvalues --   -0.22119  -0.19145
 Alpha virt. eigenvalues --    0.08651   0.09157   0.09641   0.12076   0.13182
 Alpha virt. eigenvalues --    0.14118   0.15192   0.15582   0.16365   0.17054
 Alpha virt. eigenvalues --    0.17435   0.17923   0.18754   0.19042   0.19645

 Mulliken charges:
               1
     1  C   -0.390365
     2  C   -0.086241
     3  N   -0.264917
     4  N   -0.263446
     5  N   -0.058300
     6  C   -0.101181
     7  C   -0.379789
     8  C   -0.105586
     9  N   -0.499397
    10  H    0.116914
    11  H    0.126083
    12  H    0.114240
    13  H    0.096379
    14  H    0.089929
    15  H    0.223278
    16  H    0.212451
    17  H    0.122480
    18  H    0.068304
    19  H    0.111430
    20  H    0.104519
    21  H    0.126620
    22  H    0.107578
    23  H    0.072865
    24  H    0.229144
    25  H    0.227009
 Sum of Mulliken charges =  -0.00000

 Dipole moment (field-independent basis, Debye):
    X=             -0.5880    Y=             -1.2371    Z=              0.3422  Tot=              1.4118
 Quadrupole moment (field-independent basis, Debye-Ang):
   XX=            -57.5682   YY=            -55.4384   ZZ=            -54.8393
   XY=             -3.0919   XZ=              1.0966   YZ=             -0.3195

  Exact polarizability: 106.369  -2.035  86.726   0.705  -0.269  77.984
 Approx polarizability: 127.990  -3.362 114.786   0.085   0.146 119.146

                      1                      2                      3
                      A                      A                      A
 Frequencies --     31.5273                64.4375                87.5032
 Red. masses --      2.6851                 1.9259                 3.0181
 Frc consts  --      0.0016                 0.0047                 0.0136
 IR Inten    --      3.8129                 0.1077                 1.0154

                      4                      5                      6
                      A                      A                      A
 Frequencies --    105.8912               146.4663               173.6274
 Red. masses --      2.0918                 3.2015                 2.1849
 Frc consts  --      0.0138                 0.0405                 0.0388
 IR Inten    --      1.0133                 0.5081                 5.3493

                      7                      8                      9
                      A                      A                      A
 Frequencies --    215.1871               229.6605               242.8202
 Red. masses --      1.4034                 1.2580                 1.1234
 Frc consts  --      0.0383                 0.0391                 0.0390
 IR Inten    --      0.5934                37.5327                 1.2434

                     10                     11                     12
                      A                      A                      A
 Frequencies --    273.2375               308.3960               325.3184
 Red. masses --      1.7945                 2.4560                 2.5563
 Frc consts  --      0.0789                 0.1376                 0.1594
 IR Inten    --      1.9718                 4.5930                 4.4582

                     13                     14                     15
                      A                      A                      A
 Frequencies --    375.8395               456.8511               520.7307
 Red. masses --      3.6755                 2.8165                 3.1026
 Frc consts  --      0.3059                 0.3463                 0.4957
 IR Inten    --      6.8752                 1.0216                 1.7688

                     16                     17                     18
                      A                      A                      A
 Frequencies --    567.7607               795.3873               814.7817
 Red. masses --      3.5748                 2.4031                 1.1385
 Frc consts  --      0.6789                 0.8957                 0.4453
 IR Inten    --     10.7546                38.2669                24.2502

                     19                     20                     21
                      A                      A                      A
 Frequencies --    816.6970               863.4205               882.8386
 Red. masses --      1.1114                 1.4493                 1.9684
 Frc consts  --      0.4368                 0.6366                 0.9039
 IR Inten    --      6.1037                76.9423                17.8010

                     22                     23                     24
                      A                      A                      A
 Frequencies --    933.0163               958.7157               993.3969
 Red. masses --      1.9728                 1.2223                 2.1251
 Frc consts  --      1.0118                 0.6619                 1.2356
 IR Inten    --     15.7894                33.9350                 3.4073

                     25                     26                     27
                      A                      A                      A
 Frequencies --   1030.7069              1051.7884              1070.3916
 Red. masses --      2.1071                 3.1964                 2.3009
 Frc consts  --      1.3189                 2.0834                 1.5532
 IR Inten    --      8.9401                 7.6444                13.5927

                     28                     29                     30
                      A                      A                      A
 Frequencies --   1087.5577              1105.5814              1124.8300
 Red. masses --      2.7913                 1.8872                 1.8628
 Frc consts  --      1.9452                 1.3591                 1.3886
 IR Inten    --     21.2341                47.9765                23.1854

                     31                     32                     33
                      A                      A                      A
 Frequencies --   1153.0861              1185.2728              1225.4224
 Red. masses --      2.0389                 1.7820                 2.1743
 Frc consts  --      1.5972                 1.4750                 1.9237
 IR Inten    --      6.6436                 7.4437                10.2819

                     34                     35                     36
                      A                      A                      A
 Frequencies --   1251.5936              1256.6081              1300.6527
 Red. masses --      1.5189                 1.8665                 1.1808
 Frc consts  --      1.4019                 1.7365                 1.1769
 IR Inten    --      7.0702                20.3606                 3.0847

                     37                     38                     39
                      A                      A                      A
 Frequencies --   1327.0547              1359.5226              1370.5114
 Red. masses --      1.1863                 1.2868                 1.3153
 Frc consts  --      1.2309                 1.4013                 1.4556
 IR Inten    --     11.2844                 4.5050                 4.2750

                     40                     41                     42
                      A                      A                      A
 Frequencies --   1389.9348              1408.9477              1412.3455
 Red. masses --      1.2491                 1.2580                 1.3894
 Frc consts  --      1.4218                 1.4714                 1.6329
 IR Inten    --      0.5743                 2.0485                16.3609

                     43                     44                     45
                      A                      A                      A
 Frequencies --   1429.1866              1450.8955              1484.8998
 Red. masses --      1.2570                 1.2971                 1.0416
 Frc consts  --      1.5127                 1.6088                 1.3531
 IR Inten    --     14.7630                41.7694                 3.1896

                     46                     47                     48
                      A                      A                      A
 Frequencies --   1490.2696              1494.8931              1499.3879
 Red. masses --      1.0524                 1.0669                 1.0412
 Frc consts  --      1.3771                 1.4048                 1.3791
 IR Inten    --      5.5313                 2.1650                 3.3144

                     49                     50                     51
                      A                      A                      A
 Frequencies --   1513.5433              1514.9178              1525.4072
 Red. masses --      1.0647                 1.0850                 1.0911
 Frc consts  --      1.4371                 1.4670                 1.4959
 IR Inten    --      0.1719                 4.6242                 5.5353

                     52                     53                     54
                      A                      A                      A
 Frequencies --   1537.7149              1642.6322              2911.9272
 Red. masses --      1.1362                 1.0983                 1.0695
 Frc consts  --      1.5829                 1.7460                 5.3432
 IR Inten    --      5.6123                28.7591                57.9820

                     55                     56                     57
                      A                      A                      A
 Frequencies --   2929.8652              2971.4849              3020.3835
 Red. masses --      1.0724                 1.0674                 1.0904
 Frc consts  --      5.4238                 5.5528                 5.8608
 IR Inten    --     98.8123                59.0537                31.9195

                     58                     59                     60
                      A                      A                      A
 Frequencies --   3023.7234              3035.7017              3040.5919
 Red. masses --      1.0904                 1.0387                 1.0355
 Frc consts  --      5.8738                 5.6397                 5.6407
 IR Inten    --     24.2094                29.5179                26.8419

                     61                     62                     63
                      A                      A                      A
 Frequencies --   3094.6425              3101.3070              3107.7343
 Red. masses --      1.0872                 1.0992                 1.1015
 Frc consts  --      6.1347                 6.2290                 6.2680
 IR Inten    --      3.9322                35.6737                32.8722

                     64                     65                     66
                      A                      A                      A
 Frequencies --   3119.7560              3128.9234              3310.8219
 Red. masses --      1.1022                 1.1002                 1.0741
 Frc consts  --      6.3204                 6.3461                 6.9366
 IR Inten    --     26.6148                24.9017                17.7700

                     67                     68                     69
                      A                      A                      A
 Frequencies --   3471.1270              3497.2601              3583.5397
 Red. masses --      1.0741                 1.0490                 1.0928
 Frc consts  --      7.6252                 7.5596                 8.2686
 IR Inten    --      0.3925                 0.3698                 0.5604

 - Thermochemistry -
 -------------------
 Temperature   298.150 Kelvin.  Pressure   1.00000 Atm.
 Atom     1 has atomic number  6 and mass  12.00000

 Molecular mass:   132.13750 amu.
 Principal axes and moments of inertia in atomic units:
                           1         2         3
     Eigenvalues --   823.819302209.816572773.22673
           X            0.99996   0.00808   0.00429
           Y           -0.00804   0.99992  -0.00984
           Z           -0.00436   0.00980   0.99994
 This molecule is an asymmetric top.
 Rotational symmetry number  1.
 Warning -- assumption of classical behavior for rotation
           may cause significant error
 Rotational temperatures (Kelvin)      0.10514     0.03920     0.03123
 Rotational constants (GHZ):           2.19070     0.81669     0.65077
 Zero-point vibrational energy     599495.7 (Joules/Mol)
                                  143.28291 (Kcal/Mol)
 Warning -- explicit consideration of  16 degrees of freedom as
           vibrations may cause significant error
 Vibrational temperatures:     45.36    92.71   125.90   152.35   210.73
          (Kelvin)            249.81   309.61   330.43   349.36   393.13
                              443.71   468.06   540.75   657.31   749.22
                              816.88  1144.38  1172.29  1175.04  1242.27
                             1270.21  1342.40  1379.38  1429.28  1482.96
                             1513.29  1540.05  1564.75  1590.69  1618.38
                             1659.03  1705.34  1763.11  1800.76  1807.98
                             1871.35  1909.34  1956.05  1971.86  1999.81
                             2027.16  2032.05  2056.28  2087.51  2136.44
                             2144.17  2150.82  2157.28  2177.65  2179.63
                             2194.72  2212.43  2363.38  4189.61  4215.42
                             4275.30  4345.66  4350.46  4367.70  4374.73
                             4452.50  4462.09  4471.34  4488.63  4501.82
                             4763.53  4994.18  5031.78  5155.91

 Zero-point correction=                           0.228336 (Hartree/Particle)
 Thermal correction to Energy=                    0.240199
 Thermal correction to Enthalpy=                  0.241144
 Thermal correction to Gibbs Free Energy=         0.189955
 Sum of electronic and zero-point Energies=           -418.896180
 Sum of electronic and thermal Energies=              -418.884317
 Sum of electronic and thermal Enthalpies=            -418.883372
 Sum of electronic and thermal Free Energies=         -418.934561

                     E (Thermal)             CV                S
                      KCal/Mol        Cal/Mol-Kelvin    Cal/Mol-Kelvin
 Total                  150.727             41.853            107.735
 Electronic               0.000              0.000              0.000
 Translational            0.889              2.981             40.549
 Rotational               0.889              2.981             30.002
 Vibrational            148.950             35.892             37.184
 Vibration     1          0.594              1.983              5.731
 Vibration     2          0.597              1.971              4.316
 Vibration     3          0.601              1.958              3.715
 Vibration     4          0.605              1.945              3.343
 Vibration     5          0.617              1.907              2.718
 Vibration     6          0.627              1.875              2.396
 Vibration     7          0.645              1.818              1.999
 Vibration     8          0.652              1.796              1.882
 Vibration     9          0.659              1.775              1.782
 Vibration    10          0.676              1.723              1.576
 Vibration    11          0.698              1.658              1.371
 Vibration    12          0.709              1.625              1.283
 Vibration    13          0.747              1.522              1.056
 Vibration    14          0.815              1.346              0.775
 Vibration    15          0.876              1.204              0.608
 Vibration    16          0.924              1.101              0.509

 Optimization completed.
    -- Stationary point found.
 Normal termination of Gaussian 16 at Tue Jun  1 02:51:53 2021.
