 Gaussian 16, Revision A.03,
 Gaussian 16:  ES64L-G16RevA.03 25-Dec-2016

 -----------------------------
 # opt freq b3lyp/6-31g(2df,p)
 -----------------------------

 -------------------
 Title Card Required
 -------------------
 Symbolic Z-matrix:
 Charge =  0 Multiplicity = 1

 SCF Done:  E(RB3LYP) =  -432.706113728     A.U. after   13 cycles
 SCF Done:  E(RB3LYP) =  -432.719332176     A.U. after   12 cycles
 SCF Done:  E(RB3LYP) =  -432.721980387     A.U. after   11 cycles
 SCF Done:  E(RB3LYP) =  -432.723429696     A.U. after   11 cycles
 SCF Done:  E(RB3LYP) =  -432.726124100     A.U. after   14 cycles
 SCF Done:  E(RB3LYP) =  -432.728861995     A.U. after   14 cycles
 SCF Done:  E(RB3LYP) =  -432.732791496     A.U. after   12 cycles
 SCF Done:  E(RB3LYP) =  -432.737309564     A.U. after   12 cycles
 SCF Done:  E(RB3LYP) =  -432.740021566     A.U. after   14 cycles
 SCF Done:  E(RB3LYP) =  -432.740800371     A.U. after   11 cycles
 SCF Done:  E(RB3LYP) =  -432.740980749     A.U. after   11 cycles
 SCF Done:  E(RB3LYP) =  -432.740982172     A.U. after   11 cycles
 SCF Done:  E(RB3LYP) =  -432.741061462     A.U. after   10 cycles
 SCF Done:  E(RB3LYP) =  -432.741068024     A.U. after    9 cycles
 SCF Done:  E(RB3LYP) =  -432.741068559     A.U. after    7 cycles
 SCF Done:  E(RB3LYP) =  -432.741068650     A.U. after    7 cycles
 Optimization completed.
    -- Stationary point found.
 Normal termination of Gaussian 16 at Mon May 31 21:40:10 2021.

 ----------------------------------------------------------------------
 #N Geom=AllCheck Guess=TCheck SCRF=Check GenChk RB3LYP/6-31G(2df,p) Fr
 eq
 ----------------------------------------------------------------------

 Structure from the checkpoint file:  "CCNNNCpNpCtN.chk"
 -------------------
 Title Card Required
 -------------------
 Charge =  0 Multiplicity = 1

                         Standard orientation:
 ---------------------------------------------------------------------
 Center     Atomic      Atomic             Coordinates (Angstroms)
 Number     Number       Type             X           Y           Z
 ---------------------------------------------------------------------
      1          6           0        3.616020   -0.827042    0.503200
      2          6           0        2.566610   -0.234448   -0.431870
      3          7           0        1.494553    0.403760    0.336115
      4          7           0        0.517908    1.075108   -0.456451
      5          7           0       -0.573818    0.235868   -0.809155
      6          6           0       -1.509062    0.182014    0.334128
      7          7           0       -2.256009    1.406220    0.532664
      8          6           0       -2.428211   -0.947919    0.104974
      9          7           0       -3.124839   -1.849048   -0.084565
     10          1           0        4.406045   -1.321414   -0.068437
     11          1           0        3.163171   -1.558321    1.178148
     12          1           0        4.085522   -0.046925    1.113145
     13          1           0        2.121972   -1.031160   -1.041248
     14          1           0        3.043629    0.473718   -1.134657
     15          1           0        1.885276    1.091952    0.972155
     16          1           0        0.924011    1.393949   -1.335671
     17          1           0       -0.247208   -0.709962   -1.017647
     18          1           0       -0.958422   -0.024632    1.263642
     19          1           0       -2.720787    1.651308   -0.338326
     20          1           0       -1.579914    2.142497    0.716048
 ---------------------------------------------------------------------

 SCF Done:  E(RB3LYP) =  -432.741068650     A.U. after    1 cycles

 The electronic state is 1-A.
 Alpha  occ. eigenvalues --  -14.38378 -14.35801 -14.35703 -14.32792 -14.32293
 Alpha  occ. eigenvalues --  -10.27575 -10.22714 -10.21594 -10.19361  -1.02294
 Alpha  occ. eigenvalues --   -0.93218  -0.89333  -0.87202  -0.78476  -0.73068
 Alpha  occ. eigenvalues --   -0.66618  -0.63109  -0.55948  -0.53233  -0.50723
 Alpha  occ. eigenvalues --   -0.49914  -0.47094  -0.46205  -0.45073  -0.42250
 Alpha  occ. eigenvalues --   -0.40186  -0.38375  -0.37026  -0.35474  -0.33237
 Alpha  occ. eigenvalues --   -0.32897  -0.27346  -0.26825  -0.26057  -0.25498
 Alpha virt. eigenvalues --    0.03009   0.03418   0.06451   0.08447   0.09588
 Alpha virt. eigenvalues --    0.10739   0.12081   0.13571   0.14604   0.14765
 Alpha virt. eigenvalues --    0.15575   0.16925   0.18191   0.19555   0.20241

 Mulliken charges:
               1
     1  C   -0.389915
     2  C   -0.115275
     3  N   -0.251936
     4  N   -0.282836
     5  N   -0.272871
     6  C   -0.039430
     7  N   -0.486255
     8  C    0.283557
     9  N   -0.317796
    10  H    0.126427
    11  H    0.136373
    12  H    0.119167
    13  H    0.110402
    14  H    0.086054
    15  H    0.232340
    16  H    0.228763
    17  H    0.224265
    18  H    0.128478
    19  H    0.237498
    20  H    0.242992
 Sum of Mulliken charges =  -0.00000

 Dipole moment (field-independent basis, Debye):
    X=              5.3800    Y=              2.4718    Z=             -0.6133  Tot=              5.9523
 Quadrupole moment (field-independent basis, Debye-Ang):
   XX=            -62.3131   YY=            -56.7507   ZZ=            -54.1349
   XY=             -7.2274   XZ=              0.8772   YZ=             -0.6310

  Exact polarizability:  96.921   4.457  76.334   1.754   1.646  62.808
 Approx polarizability: 118.841  13.470 116.497   4.233   5.602  96.594

                      1                      2                      3
                      A                      A                      A
 Frequencies --     45.8201                65.9323                91.3759
 Red. masses --      4.8347                 3.4622                 1.9495
 Frc consts  --      0.0060                 0.0089                 0.0096
 IR Inten    --      1.7726                 0.7558                 0.2092

                      4                      5                      6
                      A                      A                      A
 Frequencies --    131.1333               179.8875               213.6310
 Red. masses --      3.2671                 5.4288                 3.9550
 Frc consts  --      0.0331                 0.1035                 0.1063
 IR Inten    --      0.1881                 7.2942                 1.4172

                      7                      8                      9
                      A                      A                      A
 Frequencies --    246.6856               273.5557               303.6645
 Red. masses --      1.2361                 1.7293                 2.6375
 Frc consts  --      0.0443                 0.0762                 0.1433
 IR Inten    --      1.2354                 7.9872                 1.2110

                     10                     11                     12
                      A                      A                      A
 Frequencies --    328.1658               433.4578               523.7885
 Red. masses --      1.6717                 3.4614                 3.3542
 Frc consts  --      0.1061                 0.3832                 0.5422
 IR Inten    --     40.2386                10.8356                32.1089

                     13                     14                     15
                      A                      A                      A
 Frequencies --    542.2521               574.3652               594.8827
 Red. masses --      3.4961                 3.7760                 3.8050
 Frc consts  --      0.6057                 0.7339                 0.7933
 IR Inten    --      7.9900                25.7130                 6.9287

                     16                     17                     18
                      A                      A                      A
 Frequencies --    737.0905               811.3811               835.9880
 Red. masses --      1.9568                 1.3026                 1.7229
 Frc consts  --      0.6264                 0.5052                 0.7095
 IR Inten    --     22.1992                39.3244                41.8636

                     19                     20                     21
                      A                      A                      A
 Frequencies --    870.1810               885.4569               929.5940
 Red. masses --      2.6857                 1.9915                 1.4342
 Frc consts  --      1.1982                 0.9199                 0.7302
 IR Inten    --     33.9198               141.9234                 1.8271

                     22                     23                     24
                      A                      A                      A
 Frequencies --    960.6484              1026.1108              1046.8285
 Red. masses --      2.1934                 2.6724                 2.5173
 Frc consts  --      1.1926                 1.6578                 1.6253
 IR Inten    --     64.8308                96.6129                22.3020

                     25                     26                     27
                      A                      A                      A
 Frequencies --   1091.5117              1135.4367              1165.1784
 Red. masses --      3.3683                 2.0420                 1.9434
 Frc consts  --      2.3644                 1.5511                 1.5545
 IR Inten    --     24.4254                 8.8035                23.5123

                     28                     29                     30
                      A                      A                      A
 Frequencies --   1178.7351              1202.0832              1233.1835
 Red. masses --      2.1778                 1.7684                 1.6420
 Frc consts  --      1.7828                 1.5055                 1.4712
 IR Inten    --     21.8214                 6.2208                11.4682

                     31                     32                     33
                      A                      A                      A
 Frequencies --   1296.2036              1320.7132              1379.0563
 Red. masses --      1.1449                 1.2504                 1.2860
 Frc consts  --      1.1334                 1.2850                 1.4410
 IR Inten    --      3.5928                 9.2925                10.5981

                     34                     35                     36
                      A                      A                      A
 Frequencies --   1411.8180              1423.8013              1478.6750
 Red. masses --      1.2596                 1.2806                 1.0945
 Frc consts  --      1.4793                 1.5296                 1.4099
 IR Inten    --      5.2010                 1.8890                 2.1222

                     37                     38                     39
                      A                      A                      A
 Frequencies --   1486.1776              1496.2842              1498.7607
 Red. masses --      1.1698                 1.0939                 1.0720
 Frc consts  --      1.5224                 1.4429                 1.4188
 IR Inten    --     16.7102                15.4129                 5.6562

                     40                     41                     42
                      A                      A                      A
 Frequencies --   1508.6506              1529.9783              1668.0881
 Red. masses --      1.1514                 1.1182                 1.0868
 Frc consts  --      1.5440                 1.5422                 1.7817
 IR Inten    --      0.8099                 4.0200                20.9178

                     43                     44                     45
                      A                      A                      A
 Frequencies --   2369.7199              2931.6273              3007.7119
 Red. masses --     12.6770                 1.0722                 1.0811
 Frc consts  --     41.9430                 5.4295                 5.7623
 IR Inten    --      1.3032                72.4115                14.6578

                     46                     47                     48
                      A                      A                      A
 Frequencies --   3035.8291              3041.4078              3106.2119
 Red. masses --      1.0603                 1.0631                 1.0988
 Frc consts  --      5.7573                 5.7940                 6.2464
 IR Inten    --      7.5561                32.5279                27.9358

                     49                     50                     51
                      A                      A                      A
 Frequencies --   3126.0967              3411.4675              3435.9850
 Red. masses --      1.1026                 1.0734                 1.0744
 Frc consts  --      6.3483                 7.3606                 7.4732
 IR Inten    --     20.5866                 4.9565                 3.7972

                     52                     53                     54
                      A                      A                      A
 Frequencies --   3487.9322              3507.9924              3569.7832
 Red. masses --      1.0490                 1.0751                 1.0915
 Frc consts  --      7.5190                 7.7948                 8.1948
 IR Inten    --      1.7666                 1.3325                 5.5843

 - Thermochemistry -
 -------------------
 Temperature   298.150 Kelvin.  Pressure   1.00000 Atm.
 Atom     1 has atomic number  6 and mass  12.00000

 Molecular mass:   129.10145 amu.
 Principal axes and moments of inertia in atomic units:
                           1         2         3
     Eigenvalues --   594.486082470.997932811.50958
           X            0.99955  -0.02985   0.00295
           Y            0.02986   0.99954  -0.00453
           Z           -0.00281   0.00462   0.99999
 This molecule is an asymmetric top.
 Rotational symmetry number  1.
 Warning -- assumption of classical behavior for rotation
           may cause significant error
 Rotational temperatures (Kelvin)      0.14570     0.03505     0.03081
 Rotational constants (GHZ):           3.03580     0.73037     0.64191
 Zero-point vibrational energy     449724.0 (Joules/Mol)
                                  107.48661 (Kcal/Mol)
 Warning -- explicit consideration of  15 degrees of freedom as
           vibrations may cause significant error
 Vibrational temperatures:     65.92    94.86   131.47   188.67   258.82
          (Kelvin)            307.37   354.93   393.59   436.91   472.16
                              623.65   753.61   780.18   826.38   855.90
                             1060.51  1167.40  1202.80  1252.00  1273.98
                             1337.48  1382.16  1476.34  1506.15  1570.44
                             1633.64  1676.43  1695.94  1729.53  1774.28
                             1864.95  1900.21  1984.15  2031.29  2048.53
                             2127.48  2138.28  2152.82  2156.38  2170.61
                             2201.30  2400.01  3409.50  4217.96  4327.43
                             4367.88  4375.91  4469.15  4497.76  4908.34
                             4943.62  5018.36  5047.22  5136.12

 Zero-point correction=                           0.171291 (Hartree/Particle)
 Thermal correction to Energy=                    0.181801
 Thermal correction to Enthalpy=                  0.182745
 Thermal correction to Gibbs Free Energy=         0.134654
 Sum of electronic and zero-point Energies=           -432.569778
 Sum of electronic and thermal Energies=              -432.559268
 Sum of electronic and thermal Enthalpies=            -432.558323
 Sum of electronic and thermal Free Energies=         -432.606415

                     E (Thermal)             CV                S
                      KCal/Mol        Cal/Mol-Kelvin    Cal/Mol-Kelvin
 Total                  114.082             37.212            101.217
 Electronic               0.000              0.000              0.000
 Translational            0.889              2.981             40.479
 Rotational               0.889              2.981             29.803
 Vibrational            112.304             31.251             30.935
 Vibration     1          0.595              1.979              4.990
 Vibration     2          0.597              1.971              4.271
 Vibration     3          0.602              1.955              3.630
 Vibration     4          0.612              1.922              2.929
 Vibration     5          0.629              1.867              2.330
 Vibration     6          0.644              1.820              2.012
 Vibration     7          0.661              1.768              1.754
 Vibration     8          0.676              1.722              1.574
 Vibration     9          0.695              1.667              1.397
 Vibration    10          0.711              1.619              1.269
 Vibration    11          0.794              1.397              0.847
 Vibration    12          0.879              1.197              0.601
 Vibration    13          0.897              1.157              0.560
 Vibration    14          0.931              1.087              0.496
 Vibration    15          0.953              1.043              0.459

 Optimization completed.
    -- Stationary point found.
 Normal termination of Gaussian 16 at Mon May 31 22:02:43 2021.
