 Gaussian 16, Revision A.03,
 Gaussian 16:  ES64L-G16RevA.03 25-Dec-2016

 -----------------------------
 # opt freq b3lyp/6-31g(2df,p)
 -----------------------------

 -------------------
 Title Card Required
 -------------------
 Symbolic Z-matrix:
 Charge =  0 Multiplicity = 1

 SCF Done:  E(RB3LYP) =  -544.534808165     A.U. after   13 cycles
 SCF Done:  E(RB3LYP) =  -544.550193494     A.U. after   13 cycles
 SCF Done:  E(RB3LYP) =  -544.555804068     A.U. after   13 cycles
 SCF Done:  E(RB3LYP) =  -544.559762107     A.U. after   13 cycles
 SCF Done:  E(RB3LYP) =  -544.561545853     A.U. after   13 cycles
 SCF Done:  E(RB3LYP) =  -544.562604192     A.U. after   13 cycles
 SCF Done:  E(RB3LYP) =  -544.564764943     A.U. after   13 cycles
 SCF Done:  E(RB3LYP) =  -544.501840759     A.U. after   14 cycles
 SCF Done:  E(RB3LYP) =  -544.569580945     A.U. after   14 cycles
 SCF Done:  E(RB3LYP) =  -544.568112584     A.U. after   15 cycles
 SCF Done:  E(RB3LYP) =  -544.581409265     A.U. after   12 cycles
 SCF Done:  E(RB3LYP) =  -544.581534305     A.U. after   12 cycles
 SCF Done:  E(RB3LYP) =  -544.581580685     A.U. after   10 cycles
 SCF Done:  E(RB3LYP) =  -544.581588000     A.U. after   10 cycles
 SCF Done:  E(RB3LYP) =  -544.581590196     A.U. after    9 cycles
 SCF Done:  E(RB3LYP) =  -544.581591432     A.U. after    9 cycles
 SCF Done:  E(RB3LYP) =  -544.581591794     A.U. after    8 cycles
 SCF Done:  E(RB3LYP) =  -544.581591992     A.U. after    8 cycles
 SCF Done:  E(RB3LYP) =  -544.581592040     A.U. after    7 cycles
 Optimization completed.
    -- Stationary point found.
 Normal termination of Gaussian 16 at Tue Jun  1 12:12:37 2021.

 ----------------------------------------------------------------------
 #N Geom=AllCheck Guess=TCheck SCRF=Check GenChk RB3LYP/6-31G(2df,p) Fr
 eq
 ----------------------------------------------------------------------

 Structure from the checkpoint file:  "CCNNNpCNpNCNdN.chk"
 -------------------
 Title Card Required
 -------------------
 Charge =  0 Multiplicity = 1

                         Standard orientation:
 ---------------------------------------------------------------------
 Center     Atomic      Atomic             Coordinates (Angstroms)
 Number     Number       Type             X           Y           Z
 ---------------------------------------------------------------------
      1          6           0       -3.180429   -2.218574   -0.513484
      2          6           0       -2.655062   -0.888643    0.017518
      3          7           0       -1.323675   -1.079697    0.603755
      4          7           0       -0.770883    0.152964    1.036342
      5          7           0        0.020001    0.832754    0.038764
      6          6           0       -0.360037    2.252369   -0.029337
      7          7           0       -1.655842    2.382080   -0.666194
      8          7           0        1.417096    0.740424    0.249802
      9          6           0        1.944973   -0.566050   -0.106079
     10          7           0        3.382862   -0.540439    0.191017
     11          7           0        4.060051   -1.116055   -0.672581
     12          1           0       -4.192585   -2.100415   -0.911209
     13          1           0       -3.203946   -2.975327    0.276704
     14          1           0       -2.551007   -2.601263   -1.326268
     15          1           0       -3.305424   -0.509468    0.812671
     16          1           0       -2.648372   -0.125309   -0.772813
     17          1           0       -0.717664   -1.492760   -0.104764
     18          1           0       -0.162780   -0.053386    1.827059
     19          1           0        0.464614    2.745421   -0.558410
     20          1           0       -0.431961    2.686395    0.980310
     21          1           0       -1.560935    2.349964   -1.675398
     22          1           0       -2.086920    3.265930   -0.422989
     23          1           0        1.667752    0.953409    1.220158
     24          1           0        1.744907   -0.767329   -1.163317
     25          1           0        1.534843   -1.395047    0.499861
     26          1           0        5.045522   -1.059645   -0.359639
 ---------------------------------------------------------------------

 SCF Done:  E(RB3LYP) =  -544.581592040     A.U. after    1 cycles

 The electronic state is 1-A.
 Alpha  occ. eigenvalues --  -14.39086 -14.38044 -14.36948 -14.35607 -14.35096
 Alpha  occ. eigenvalues --  -14.32685 -14.30934 -10.23852 -10.22741 -10.18420
 Alpha  occ. eigenvalues --  -10.16562  -1.03975  -1.02049  -0.93242  -0.88486
 Alpha  occ. eigenvalues --   -0.82722  -0.76731  -0.71789  -0.69068  -0.61574
 Alpha  occ. eigenvalues --   -0.60649  -0.59068  -0.53894  -0.51543  -0.50190
 Alpha  occ. eigenvalues --   -0.47936  -0.47350  -0.46676  -0.45100  -0.43328
 Alpha  occ. eigenvalues --   -0.42182  -0.41638  -0.38946  -0.38668  -0.36892
 Alpha  occ. eigenvalues --   -0.36182  -0.34996  -0.33741  -0.27774  -0.25682
 Alpha  occ. eigenvalues --   -0.24044  -0.23932  -0.22362  -0.21584
 Alpha virt. eigenvalues --   -0.04877   0.07614   0.08549   0.09446   0.10322
 Alpha virt. eigenvalues --    0.12123   0.13326   0.13572   0.14158   0.15378
 Alpha virt. eigenvalues --    0.16123   0.16300   0.17181   0.17732   0.18690

 Mulliken charges:
               1
     1  C   -0.395034
     2  C   -0.062652
     3  N   -0.266383
     4  N   -0.251742
     5  N   -0.076217
     6  C   -0.064881
     7  N   -0.484365
     8  N   -0.263174
     9  C   -0.038892
    10  N   -0.123063
    11  N   -0.268566
    12  H    0.113935
    13  H    0.121266
    14  H    0.107529
    15  H    0.101367
    16  H    0.100317
    17  H    0.202994
    18  H    0.212869
    19  H    0.100326
    20  H    0.085691
    21  H    0.228202
    22  H    0.229533
    23  H    0.211442
    24  H    0.124066
    25  H    0.107721
    26  H    0.247712
 Sum of Mulliken charges =  -0.00000

 Dipole moment (field-independent basis, Debye):
    X=              0.8289    Y=              1.2381    Z=             -0.0742  Tot=              1.4918
 Quadrupole moment (field-independent basis, Debye-Ang):
   XX=            -65.4827   YY=            -62.5552   ZZ=            -66.4963
   XY=             -3.4015   XZ=              4.9842   YZ=             -0.8582

  Exact polarizability: 125.660  -3.600  97.725  -0.209   3.838  80.212
 Approx polarizability: 153.737  -5.887 131.494  -4.387   7.192 128.194

                      1                      2                      3
                      A                      A                      A
 Frequencies --     35.8454                50.3159                64.0150
 Red. masses --      3.1268                 4.6464                 2.0233
 Frc consts  --      0.0024                 0.0069                 0.0049
 IR Inten    --      0.3765                 0.3470                 0.6808

                      4                      5                      6
                      A                      A                      A
 Frequencies --     90.9308                93.3210               111.4824
 Red. masses --      4.3442                 2.9027                 2.4453
 Frc consts  --      0.0212                 0.0149                 0.0179
 IR Inten    --      0.0629                 1.1440                 4.0752

                      7                      8                      9
                      A                      A                      A
 Frequencies --    139.3248               165.9510               194.3408
 Red. masses --      4.5109                 2.9000                 1.1555
 Frc consts  --      0.0516                 0.0471                 0.0257
 IR Inten    --      0.2462                 4.1231                35.9255

                     10                     11                     12
                      A                      A                      A
 Frequencies --    246.2237               257.9149               289.6970
 Red. masses --      1.1606                 2.7984                 3.1917
 Frc consts  --      0.0415                 0.1097                 0.1578
 IR Inten    --      0.7473                 2.9525                 9.5425

                     13                     14                     15
                      A                      A                      A
 Frequencies --    334.7890               360.4555               378.4377
 Red. masses --      3.0205                 4.7066                 3.1348
 Frc consts  --      0.1995                 0.3603                 0.2645
 IR Inten    --      2.1156                 6.5944                 0.4592

                     16                     17                     18
                      A                      A                      A
 Frequencies --    472.3482               546.0312               577.7763
 Red. masses --      3.4730                 2.6308                 3.1125
 Frc consts  --      0.4565                 0.4621                 0.6122
 IR Inten    --     12.0070                21.6763                 3.8153

                     19                     20                     21
                      A                      A                      A
 Frequencies --    583.8887               707.0202               790.4403
 Red. masses --      3.0801                 3.2782                 1.7097
 Frc consts  --      0.6187                 0.9655                 0.6294
 IR Inten    --     14.8432                20.2914                33.5144

                     22                     23                     24
                      A                      A                      A
 Frequencies --    803.3422               810.0139               829.1976
 Red. masses --      1.3583                 1.2525                 1.7225
 Frc consts  --      0.5165                 0.4842                 0.6978
 IR Inten    --    133.8444                 8.2069                33.8734

                     25                     26                     27
                      A                      A                      A
 Frequencies --    862.2040               924.6913               941.3251
 Red. masses --      1.2766                 1.6880                 1.7896
 Frc consts  --      0.5591                 0.8504                 0.9343
 IR Inten    --     40.1730                 7.5440                86.9044

                     28                     29                     30
                      A                      A                      A
 Frequencies --    987.5688              1008.3807              1047.5454
 Red. masses --      2.2443                 1.8037                 2.6888
 Frc consts  --      1.2896                 1.0806                 1.7384
 IR Inten    --     21.4226                11.2183                 2.3065

                     31                     32                     33
                      A                      A                      A
 Frequencies --   1076.6625              1089.1166              1116.0350
 Red. masses --      2.0599                 3.5525                 2.6539
 Frc consts  --      1.4069                 2.4827                 1.9476
 IR Inten    --     14.7546                12.7959                17.8276

                     34                     35                     36
                      A                      A                      A
 Frequencies --   1128.4286              1151.3208              1177.9946
 Red. masses --      2.1878                 2.1189                 2.8932
 Frc consts  --      1.6414                 1.6548                 2.3655
 IR Inten    --     44.5425                17.3758                17.7416

                     37                     38                     39
                      A                      A                      A
 Frequencies --   1208.1772              1216.0991              1242.4862
 Red. masses --      1.8054                 1.7427                 1.6050
 Frc consts  --      1.5527                 1.5185                 1.4598
 IR Inten    --      5.1805                 8.4781                11.5958

                     40                     41                     42
                      A                      A                      A
 Frequencies --   1262.4815              1290.2915              1347.6146
 Red. masses --      1.5247                 1.1673                 1.1906
 Frc consts  --      1.4318                 1.1450                 1.2740
 IR Inten    --      8.1357                 0.6018                 1.6030

                     43                     44                     45
                      A                      A                      A
 Frequencies --   1369.7928              1376.4059              1409.2084
 Red. masses --      1.3130                 1.3056                 1.2980
 Frc consts  --      1.4515                 1.4574                 1.5188
 IR Inten    --     26.8054                 6.7259                 3.6313

                     46                     47                     48
                      A                      A                      A
 Frequencies --   1429.1526              1464.4590              1487.7555
 Red. masses --      1.2791                 1.1328                 1.0559
 Frc consts  --      1.5392                 1.4314                 1.3770
 IR Inten    --     20.0852                 5.1300                 4.8910

                     49                     50                     51
                      A                      A                      A
 Frequencies --   1494.1464              1498.6723              1500.4284
 Red. masses --      1.2441                 1.0415                 1.1033
 Frc consts  --      1.6364                 1.3782                 1.4634
 IR Inten    --     31.6026                 5.0821                 3.2558

                     52                     53                     54
                      A                      A                      A
 Frequencies --   1503.4178              1518.5736              1523.4280
 Red. masses --      1.1198                 1.1463                 1.1087
 Frc consts  --      1.4912                 1.5575                 1.5161
 IR Inten    --      1.5610                 8.5418                12.5015

                     55                     56                     57
                      A                      A                      A
 Frequencies --   1530.1673              1654.0842              1666.8081
 Red. masses --      1.1736                 1.0992                10.2690
 Frc consts  --      1.6190                 1.7719                16.8093
 IR Inten    --     10.3073                24.6907                 3.6128

                     58                     59                     60
                      A                      A                      A
 Frequencies --   2931.2508              2979.1805              3014.6953
 Red. masses --      1.0680                 1.0622                 1.0661
 Frc consts  --      5.4065                 5.5543                 5.7088
 IR Inten    --     36.9102                66.5338                25.9520

                     61                     62                     63
                      A                      A                      A
 Frequencies --   3028.1269              3040.8460              3065.9656
 Red. masses --      1.0389                 1.0994                 1.0938
 Frc consts  --      5.6128                 5.9897                 6.0579
 IR Inten    --     23.9602                41.6413                 9.5854

                     64                     65                     66
                      A                      A                      A
 Frequencies --   3076.5379              3096.0598              3114.6313
 Red. masses --      1.0913                 1.0984                 1.1019
 Frc consts  --      6.0858                 6.2036                 6.2981
 IR Inten    --     12.1112                52.0066                27.8076

                     67                     68                     69
                      A                      A                      A
 Frequencies --   3245.5126              3369.9208              3436.8117
 Red. masses --      1.0739                 1.0721                 1.0727
 Frc consts  --      6.6648                 7.1734                 7.4652
 IR Inten    --     30.5014                10.3238                 6.4454

                     70                     71                     72
                      A                      A                      A
 Frequencies --   3447.5200              3515.7410              3603.4133
 Red. masses --      1.0747                 1.0493                 1.0933
 Frc consts  --      7.5255                 7.6417                 8.3644
 IR Inten    --      3.3300                 0.2916                 1.9168

 - Thermochemistry -
 -------------------
 Temperature   298.150 Kelvin.  Pressure   1.00000 Atm.
 Atom     1 has atomic number  6 and mass  12.00000

 Molecular mass:   161.13889 amu.
 Principal axes and moments of inertia in atomic units:
                           1         2         3
     Eigenvalues --  1352.603683176.726064156.63998
           X            0.99975   0.02042   0.00937
           Y           -0.02048   0.99977   0.00693
           Z           -0.00923  -0.00712   0.99993
 This molecule is an asymmetric top.
 Rotational symmetry number  1.
 Warning -- assumption of classical behavior for rotation
           may cause significant error
 Rotational temperatures (Kelvin)      0.06403     0.02727     0.02084
 Rotational constants (GHZ):           1.33427     0.56811     0.43418
 Zero-point vibrational energy     594569.4 (Joules/Mol)
                                  142.10550 (Kcal/Mol)
 Warning -- explicit consideration of  19 degrees of freedom as
           vibrations may cause significant error
 Vibrational temperatures:     51.57    72.39    92.10   130.83   134.27
          (Kelvin)            160.40   200.46   238.77   279.61   354.26
                              371.08   416.81   481.69   518.62   544.49
                              679.60   785.62   831.29   840.09  1017.24
                             1137.27  1155.83  1165.43  1193.03  1240.52
                             1330.42  1354.36  1420.89  1450.83  1507.18
                             1549.08  1567.00  1605.73  1623.56  1656.49
                             1694.87  1738.30  1749.70  1787.66  1816.43
                             1856.44  1938.92  1970.83  1980.34  2027.54
                             2056.23  2107.03  2140.55  2149.74  2156.26
                             2158.78  2163.08  2184.89  2191.87  2201.57
                             2379.86  2398.17  4217.42  4286.38  4337.47
                             4356.80  4375.10  4411.24  4426.45  4454.54
                             4481.26  4669.57  4848.56  4944.81  4960.21
                             5058.37  5184.51

 Zero-point correction=                           0.226460 (Hartree/Particle)
 Thermal correction to Energy=                    0.240070
 Thermal correction to Enthalpy=                  0.241014
 Thermal correction to Gibbs Free Energy=         0.184935
 Sum of electronic and zero-point Energies=           -544.355133
 Sum of electronic and thermal Energies=              -544.341522
 Sum of electronic and thermal Enthalpies=            -544.340578
 Sum of electronic and thermal Free Energies=         -544.396657

                     E (Thermal)             CV                S
                      KCal/Mol        Cal/Mol-Kelvin    Cal/Mol-Kelvin
 Total                  150.646             47.579            118.028
 Electronic               0.000              0.000              0.000
 Translational            0.889              2.981             41.140
 Rotational               0.889              2.981             31.258
 Vibrational            148.869             41.617             45.631
 Vibration     1          0.594              1.982              5.476
 Vibration     2          0.595              1.977              4.805
 Vibration     3          0.597              1.971              4.329
 Vibration     4          0.602              1.956              3.640
 Vibration     5          0.602              1.954              3.589
 Vibration     6          0.607              1.940              3.243
 Vibration     7          0.615              1.914              2.813
 Vibration     8          0.624              1.884              2.481
 Vibration     9          0.635              1.848              2.186
 Vibration    10          0.661              1.769              1.757
 Vibration    11          0.667              1.749              1.676
 Vibration    12          0.686              1.693              1.476
 Vibration    13          0.716              1.606              1.237
 Vibration    14          0.735              1.554              1.120
 Vibration    15          0.749              1.516              1.045
 Vibration    16          0.829              1.311              0.731
 Vibration    17          0.901              1.148              0.552
 Vibration    18          0.934              1.079              0.489
 Vibration    19          0.941              1.066              0.478

                           ! Non-Optimized Parameters !
 Normal termination of Gaussian 16 at Tue Jun  1 13:21:57 2021.
