 Gaussian 16, Revision A.03,
 Gaussian 16:  ES64L-G16RevA.03 25-Dec-2016

 -----------------------------
 # opt freq b3lyp/6-31g(2df,p)
 -----------------------------

 -------------------
 Title Card Required
 -------------------
 Symbolic Z-matrix:
 Charge =  0 Multiplicity = 1

 SCF Done:  E(RB3LYP) =  -543.393498009     A.U. after   14 cycles
 SCF Done:  E(RB3LYP) =  -543.398621442     A.U. after   13 cycles
 SCF Done:  E(RB3LYP) =  -543.401213928     A.U. after   11 cycles
 SCF Done:  E(RB3LYP) =  -543.401339268     A.U. after   10 cycles
 SCF Done:  E(RB3LYP) =  -543.401346394     A.U. after    8 cycles
 SCF Done:  E(RB3LYP) =  -543.401347878     A.U. after    8 cycles
 SCF Done:  E(RB3LYP) =  -543.401348202     A.U. after    7 cycles
 SCF Done:  E(RB3LYP) =  -543.323106698     A.U. after   15 cycles
 SCF Done:  E(RB3LYP) =  -543.308383045     A.U. after   14 cycles
 SCF Done:  E(RB3LYP) =  -542.987472627     A.U. after   14 cycles
 SCF Done:  E(RB3LYP) =  -543.438668333     A.U. after   11 cycles
 SCF Done:  E(RB3LYP) =  -543.438682850     A.U. after   10 cycles
 SCF Done:  E(RB3LYP) =  -543.438688725     A.U. after   10 cycles
 SCF Done:  E(RB3LYP) =  -543.438690688     A.U. after    9 cycles
 SCF Done:  E(RB3LYP) =  -543.438691155     A.U. after    8 cycles
 SCF Done:  E(RB3LYP) =  -543.438691393     A.U. after    8 cycles
 SCF Done:  E(RB3LYP) =  -543.438691486     A.U. after    7 cycles
 SCF Done:  E(RB3LYP) =  -543.438691534     A.U. after    7 cycles
 SCF Done:  E(RB3LYP) =  -543.438691559     A.U. after    7 cycles
 Optimization completed.
    -- Stationary point found.
 Normal termination of Gaussian 16 at Mon May 31 22:12:00 2021.

 ----------------------------------------------------------------------
 #N Geom=AllCheck Guess=TCheck SCRF=Check GenChk RB3LYP/6-31G(2df,p) Fr
 eq
 ----------------------------------------------------------------------

 Structure from the checkpoint file:  "CCNNdCpNpCNNdNN.chk"
 -------------------
 Title Card Required
 -------------------
 Charge =  0 Multiplicity = 1

                         Standard orientation:
 ---------------------------------------------------------------------
 Center     Atomic      Atomic             Coordinates (Angstroms)
 Number     Number       Type             X           Y           Z
 ---------------------------------------------------------------------
      1          6           0       -5.168604   -0.047266   -0.374656
      2          6           0       -3.866334   -0.798553   -0.119508
      3          7           0       -2.767303    0.145430    0.080398
      4          7           0       -1.556953   -0.531161    0.304896
      5          6           0       -0.522290    0.225271    0.313750
      6          7           0       -0.554214    1.587241    0.049792
      7          6           0        0.817611   -0.388966    0.628929
      8          7           0        1.861847    0.170539   -0.227361
      9          7           0        3.132002   -0.037122    0.265545
     10          7           0        3.977356   -0.179524   -0.637937
     11          7           0        5.248571   -0.387263   -0.141570
     12          1           0       -6.000132   -0.748332   -0.489962
     13          1           0       -5.111821    0.550015   -1.292592
     14          1           0       -5.396696    0.629895    0.453850
     15          1           0       -3.658611   -1.498379   -0.944480
     16          1           0       -3.944120   -1.400248    0.791463
     17          1           0       -2.680730    0.754927   -0.736096
     18          1           0       -1.375044    2.055498    0.414477
     19          1           0        0.316451    2.068252    0.221973
     20          1           0        0.724237   -1.479128    0.560410
     21          1           0        1.109426   -0.141924    1.657070
     22          1           0        1.787653   -0.097742   -1.208147
     23          1           0        5.918860    0.018378   -0.781887
     24          1           0        5.359091   -0.031118    0.806483
 ---------------------------------------------------------------------

 SCF Done:  E(RB3LYP) =  -543.438691559     A.U. after    1 cycles

 The electronic state is 1-A.
 Alpha  occ. eigenvalues --  -14.39006 -14.38870 -14.36273 -14.35834 -14.33740
 Alpha  occ. eigenvalues --  -14.33539 -14.31898 -10.23393 -10.21808 -10.19704
 Alpha  occ. eigenvalues --  -10.17275  -1.07715  -0.98194  -0.95009  -0.89838
 Alpha  occ. eigenvalues --   -0.83623  -0.80595  -0.72925  -0.68758  -0.62178
 Alpha  occ. eigenvalues --   -0.60094  -0.56901  -0.54687  -0.52936  -0.52060
 Alpha  occ. eigenvalues --   -0.49627  -0.46679  -0.44992  -0.44555  -0.42892
 Alpha  occ. eigenvalues --   -0.41852  -0.40460  -0.38617  -0.37352  -0.35996
 Alpha  occ. eigenvalues --   -0.35011  -0.34134  -0.30769  -0.28437  -0.26067
 Alpha  occ. eigenvalues --   -0.25691  -0.21522  -0.19140
 Alpha virt. eigenvalues --   -0.00877   0.03406   0.08488   0.08932   0.10420
 Alpha virt. eigenvalues --    0.11905   0.13548   0.14470   0.14946   0.15059
 Alpha virt. eigenvalues --    0.15669   0.16954   0.17699   0.18605   0.18822

 Mulliken charges:
               1
     1  C   -0.396984
     2  C   -0.068307
     3  N   -0.289792
     4  N   -0.261054
     5  C    0.334631
     6  N   -0.558148
     7  C   -0.199579
     8  N   -0.245982
     9  N   -0.080531
    10  N   -0.096997
    11  N   -0.400704
    12  H    0.117698
    13  H    0.110075
    14  H    0.123578
    15  H    0.088129
    16  H    0.113481
    17  H    0.219151
    18  H    0.253027
    19  H    0.254503
    20  H    0.125288
    21  H    0.130529
    22  H    0.232370
    23  H    0.257326
    24  H    0.238294
 Sum of Mulliken charges =  -0.00000

 Dipole moment (field-independent basis, Debye):
    X=              0.9157    Y=              2.2578    Z=             -0.2745  Tot=              2.4518
 Quadrupole moment (field-independent basis, Debye-Ang):
   XX=            -53.4836   YY=            -65.5160   ZZ=            -65.5859
   XY=              3.8141   XZ=              2.9298   YZ=              1.3628

  Exact polarizability: 174.154   4.071  78.562   1.628  -0.588  72.802
 Approx polarizability: 206.719   4.885 123.715  -4.520  -1.107 115.093

                      1                      2                      3
                      A                      A                      A
 Frequencies --     29.1055                53.4430                69.2084
 Red. masses --      4.2288                 3.4919                 1.9601
 Frc consts  --      0.0021                 0.0059                 0.0055
 IR Inten    --      0.1497                 0.6762                 0.5431

                      4                      5                      6
                      A                      A                      A
 Frequencies --     98.9278               110.1039               131.5000
 Red. masses --      4.1248                 2.8036                 4.0851
 Frc consts  --      0.0238                 0.0200                 0.0416
 IR Inten    --      0.0950                 3.7458                 5.4023

                      7                      8                      9
                      A                      A                      A
 Frequencies --    181.2841               225.9469               248.8282
 Red. masses --      2.6120                 3.6061                 1.1883
 Frc consts  --      0.0506                 0.1085                 0.0434
 IR Inten    --     30.3375                 4.9401                 0.0939

                     10                     11                     12
                      A                      A                      A
 Frequencies --    279.5260               320.9744               342.0338
 Red. masses --      4.3613                 2.8147                 3.4935
 Frc consts  --      0.2008                 0.1709                 0.2408
 IR Inten    --      3.9277                 9.0248                10.2911

                     13                     14                     15
                      A                      A                      A
 Frequencies --    374.4447               417.9565               462.5639
 Red. masses --      3.4557                 1.5087                 1.7550
 Frc consts  --      0.2855                 0.1553                 0.2212
 IR Inten    --     43.7051                70.3236                27.4127

                     16                     17                     18
                      A                      A                      A
 Frequencies --    475.7557               495.8102               595.2094
 Red. masses --      1.8631                 3.4215                 1.7155
 Frc consts  --      0.2485                 0.4956                 0.3581
 IR Inten    --     11.4701                35.0379                89.7626

                     19                     20                     21
                      A                      A                      A
 Frequencies --    634.2371               640.1067               718.9647
 Red. masses --      2.7089                 3.3155                 3.3051
 Frc consts  --      0.6420                 0.8004                 1.0066
 IR Inten    --     70.3846                47.8679                28.4383

                     22                     23                     24
                      A                      A                      A
 Frequencies --    767.8316               790.5096               801.1628
 Red. masses --      1.6937                 1.5900                 1.3023
 Frc consts  --      0.5883                 0.5854                 0.4925
 IR Inten    --    415.4542                61.3415                26.3969

                     25                     26                     27
                      A                      A                      A
 Frequencies --    813.7136               910.3405               960.4122
 Red. masses --      1.1806                 2.7421                 1.6527
 Frc consts  --      0.4606                 1.3389                 0.8982
 IR Inten    --      7.9793                 5.4809                 2.9496

                     28                     29                     30
                      A                      A                      A
 Frequencies --    985.2528              1044.7264              1090.0437
 Red. masses --      1.9124                 2.5126                 2.8749
 Frc consts  --      1.0938                 1.6157                 2.0126
 IR Inten    --     19.3253                 7.3192                 4.9522

                     31                     32                     33
                      A                      A                      A
 Frequencies --   1113.4299              1140.0547              1151.6144
 Red. masses --      2.6903                 1.8108                 2.0403
 Frc consts  --      1.9651                 1.3867                 1.5943
 IR Inten    --     71.7227                86.3768                42.1937

                     34                     35                     36
                      A                      A                      A
 Frequencies --   1165.5748              1181.7259              1211.5470
 Red. masses --      2.7273                 2.5115                 2.0192
 Frc consts  --      2.1831                 2.0664                 1.7463
 IR Inten    --     87.5233                28.5028                 6.5494

                     37                     38                     39
                      A                      A                      A
 Frequencies --   1271.0798              1287.6163              1336.8196
 Red. masses --      1.2932                 1.1551                 1.8044
 Frc consts  --      1.2310                 1.1284                 1.8999
 IR Inten    --      1.0218                 3.7074                 9.1189

                     40                     41                     42
                      A                      A                      A
 Frequencies --   1348.7350              1375.1772              1399.3583
 Red. masses --      1.4969                 1.3331                 2.8212
 Frc consts  --      1.6043                 1.4854                 3.2550
 IR Inten    --     12.3793                22.6822                35.0273

                     43                     44                     45
                      A                      A                      A
 Frequencies --   1412.3274              1475.2240              1479.4490
 Red. masses --      1.3572                 1.3189                 1.1299
 Frc consts  --      1.5950                 1.6912                 1.4571
 IR Inten    --     13.7581                21.5822                 9.2731

                     46                     47                     48
                      A                      A                      A
 Frequencies --   1494.4508              1497.7647              1500.6930
 Red. masses --      1.0891                 1.0562                 1.0924
 Frc consts  --      1.4331                 1.3960                 1.4495
 IR Inten    --     23.9956                 8.3744                 0.5709

                     49                     50                     51
                      A                      A                      A
 Frequencies --   1523.6459              1608.6237              1611.0669
 Red. masses --      1.0892                 2.0437                 1.4867
 Frc consts  --      1.4899                 3.1158                 2.2736
 IR Inten    --      6.6207                55.3099                54.0416

                     52                     53                     54
                      A                      A                      A
 Frequencies --   1639.3555              1725.2480              2977.0711
 Red. masses --      1.3845                 8.6985                 1.0721
 Frc consts  --      2.1923                15.2545                 5.5983
 IR Inten    --     18.5378                87.9040                70.7615

                     55                     56                     57
                      A                      A                      A
 Frequencies --   3026.3397              3031.1186              3068.6912
 Red. masses --      1.0568                 1.0387                 1.1053
 Frc consts  --      5.7029                 5.6228                 6.1326
 IR Inten    --     19.9007                23.2527                19.1591

                     58                     59                     60
                      A                      A                      A
 Frequencies --   3070.4282              3099.6458              3117.9034
 Red. masses --      1.0884                 1.0979                 1.1020
 Frc consts  --      6.0456                 6.2152                 6.3120
 IR Inten    --      8.3589                48.5743                29.5952

                     61                     62                     63
                      A                      A                      A
 Frequencies --   3397.8746              3456.4862              3460.9548
 Red. masses --      1.0734                 1.0496                 1.0737
 Frc consts  --      7.3016                 7.3881                 7.5772
 IR Inten    --      3.6836                 1.1841                 2.1594

                     64                     65                     66
                      A                      A                      A
 Frequencies --   3529.2734              3614.0719              3655.8816
 Red. masses --      1.0473                 1.0935                 1.0977
 Frc consts  --      7.6857                 8.4154                 8.6438
 IR Inten    --      8.2263                16.6201                48.5535

 - Thermochemistry -
 -------------------
 Temperature   298.150 Kelvin.  Pressure   1.00000 Atm.
 Atom     1 has atomic number  6 and mass  12.00000

 Molecular mass:   159.12324 amu.
 Principal axes and moments of inertia in atomic units:
                           1         2         3
     Eigenvalues --   344.950315983.885746135.19696
           X            0.99998   0.00225   0.00535
           Y           -0.00225   1.00000   0.00082
           Z           -0.00535  -0.00083   0.99999
 This molecule is an asymmetric top.
 Rotational symmetry number  1.
 Rotational temperatures (Kelvin)      0.25109     0.01447     0.01412
 Rotational constants (GHZ):           5.23189     0.30160     0.29416
 Zero-point vibrational energy     535485.9 (Joules/Mol)
                                  127.98419 (Kcal/Mol)
 Warning -- explicit consideration of  18 degrees of freedom as
           vibrations may cause significant error
 Vibrational temperatures:     41.88    76.89    99.58   142.34   158.41
          (Kelvin)            189.20   260.83   325.09   358.01   402.18
                              461.81   492.11   538.74   601.35   665.53
                              684.51   713.36   856.37   912.53   920.97
                             1034.43  1104.74  1137.37  1152.69  1170.75
                             1309.78  1381.82  1417.56  1503.13  1568.33
                             1601.98  1640.28  1656.92  1677.00  1700.24
                             1743.15  1828.80  1852.59  1923.39  1940.53
                             1978.57  2013.36  2032.02  2122.52  2128.60
                             2150.18  2154.95  2159.16  2192.19  2314.45
                             2317.97  2358.67  2482.25  4283.34  4354.23
                             4361.10  4415.16  4417.66  4459.70  4485.97
                             4888.78  4973.11  4979.54  5077.84  5199.84
                             5260.00

 Zero-point correction=                           0.203956 (Hartree/Particle)
 Thermal correction to Energy=                    0.216868
 Thermal correction to Enthalpy=                  0.217812
 Thermal correction to Gibbs Free Energy=         0.163662
 Sum of electronic and zero-point Energies=           -543.234736
 Sum of electronic and thermal Energies=              -543.221824
 Sum of electronic and thermal Enthalpies=            -543.220879
 Sum of electronic and thermal Free Energies=         -543.275030

                     E (Thermal)             CV                S
                      KCal/Mol        Cal/Mol-Kelvin    Cal/Mol-Kelvin
 Total                  136.087             46.171            113.968
 Electronic               0.000              0.000              0.000
 Translational            0.889              2.981             41.103
 Rotational               0.889              2.981             30.916
 Vibrational            134.309             40.210             41.950
 Vibration     1          0.593              1.984              5.889
 Vibration     2          0.596              1.976              4.686
 Vibration     3          0.598              1.969              4.176
 Vibration     4          0.604              1.950              3.475
 Vibration     5          0.606              1.941              3.267
 Vibration     6          0.612              1.922              2.924
 Vibration     7          0.630              1.865              2.315
 Vibration     8          0.650              1.802              1.911
 Vibration     9          0.662              1.765              1.739
 Vibration    10          0.680              1.711              1.537
 Vibration    11          0.706              1.633              1.305
 Vibration    12          0.721              1.591              1.203
 Vibration    13          0.746              1.525              1.062
 Vibration    14          0.781              1.431              0.899
 Vibration    15          0.820              1.333              0.759
 Vibration    16          0.832              1.304              0.722
 Vibration    17          0.851              1.259              0.669
 Vibration    18          0.953              1.042              0.458

 Optimization completed.
    -- Stationary point found.
 Normal termination of Gaussian 16 at Mon May 31 22:49:05 2021.
