 Gaussian 16, Revision A.03,
 Gaussian 16:  ES64L-G16RevA.03 25-Dec-2016

 -----------------------------
 # opt freq b3lyp/6-31g(2df,p)
 -----------------------------

 -------------------
 Title Card Required
 -------------------
 Symbolic Z-matrix:
 Charge =  0 Multiplicity = 1

 SCF Done:  E(RB3LYP) =  -458.410580560     A.U. after   12 cycles
 SCF Done:  E(RB3LYP) =  -458.421602743     A.U. after   11 cycles
 SCF Done:  E(RB3LYP) =  -458.423511373     A.U. after   11 cycles
 SCF Done:  E(RB3LYP) =  -458.424056619     A.U. after   11 cycles
 SCF Done:  E(RB3LYP) =  -458.424169372     A.U. after   10 cycles
 SCF Done:  E(RB3LYP) =  -458.424260374     A.U. after   10 cycles
 SCF Done:  E(RB3LYP) =  -458.424624112     A.U. after   11 cycles
 SCF Done:  E(RB3LYP) =  -458.427888767     A.U. after   12 cycles
 SCF Done:  E(RB3LYP) =  -458.434894292     A.U. after   11 cycles
 SCF Done:  E(RB3LYP) =  -458.437649790     A.U. after   11 cycles
 SCF Done:  E(RB3LYP) =  -458.438783258     A.U. after    8 cycles
 SCF Done:  E(RB3LYP) =  -458.438790467     A.U. after    9 cycles
 SCF Done:  E(RB3LYP) =  -458.438793651     A.U. after    9 cycles
 SCF Done:  E(RB3LYP) =  -458.438795959     A.U. after    9 cycles
 SCF Done:  E(RB3LYP) =  -458.438796743     A.U. after    8 cycles
 SCF Done:  E(RB3LYP) =  -458.438797242     A.U. after    8 cycles
 SCF Done:  E(RB3LYP) =  -458.438797394     A.U. after    7 cycles
 SCF Done:  E(RB3LYP) =  -458.438797514     A.U. after    7 cycles
 SCF Done:  E(RB3LYP) =  -458.438797542     A.U. after    6 cycles
 Optimization completed.
    -- Stationary point found.
 Normal termination of Gaussian 16 at Tue Jun  1 08:49:16 2021.

 ----------------------------------------------------------------------
 #N Geom=AllCheck Guess=TCheck SCRF=Check GenChk RB3LYP/6-31G(2df,p) Fr
 eq
 ----------------------------------------------------------------------

 Structure from the checkpoint file:  "CCNNpCpNCCCN.chk"
 -------------------
 Title Card Required
 -------------------
 Charge =  0 Multiplicity = 1

                         Standard orientation:
 ---------------------------------------------------------------------
 Center     Atomic      Atomic             Coordinates (Angstroms)
 Number     Number       Type             X           Y           Z
 ---------------------------------------------------------------------
      1          6           0       -3.491386   -2.013204    0.184212
      2          6           0       -2.293564   -1.223132   -0.338913
      3          7           0       -2.267084    0.102112    0.276416
      4          7           0       -1.323205    1.006274   -0.289193
      5          6           0       -1.864386    2.358092   -0.179312
      6          7           0       -0.025255    1.006749    0.288274
      7          6           0        0.876762   -0.027809   -0.210426
      8          6           0        2.309160    0.267349    0.237376
      9          6           0        3.316548   -0.760023   -0.278431
     10          7           0        4.659455   -0.460347    0.229847
     11          1           0       -3.543262   -2.995888   -0.294212
     12          1           0       -4.423798   -1.476045   -0.010524
     13          1           0       -3.417371   -2.177311    1.265746
     14          1           0       -2.382119   -1.065339   -1.418232
     15          1           0       -1.373830   -1.807199   -0.177911
     16          1           0       -2.130900    0.033681    1.288320
     17          1           0       -2.840022    2.386367   -0.666861
     18          1           0       -1.179123    3.051950   -0.668995
     19          1           0       -1.992427    2.676867    0.870976
     20          1           0       -0.090388    0.969165    1.309802
     21          1           0        0.803154   -0.007963   -1.302707
     22          1           0        0.602356   -1.046470    0.110037
     23          1           0        2.367740    0.289901    1.333013
     24          1           0        2.585474    1.271043   -0.109570
     25          1           0        3.254727   -0.802575   -1.380799
     26          1           0        3.039131   -1.757723    0.085229
     27          1           0        4.976797    0.425340   -0.155403
     28          1           0        5.317686   -1.158959   -0.102368
 ---------------------------------------------------------------------

 SCF Done:  E(RB3LYP) =  -458.438797542     A.U. after    1 cycles

 The electronic state is 1-A.
 Alpha  occ. eigenvalues --  -14.36310 -14.33158 -14.32993 -14.30414 -10.20198
 Alpha  occ. eigenvalues --  -10.19978 -10.19946 -10.18827 -10.17386 -10.17241
 Alpha  occ. eigenvalues --   -0.99896  -0.87827  -0.87114  -0.79859  -0.73963
 Alpha  occ. eigenvalues --   -0.71778  -0.64750  -0.61315  -0.60261  -0.58256
 Alpha  occ. eigenvalues --   -0.51970  -0.49071  -0.47839  -0.46468  -0.45471
 Alpha  occ. eigenvalues --   -0.44304  -0.43193  -0.41077  -0.39730  -0.38989
 Alpha  occ. eigenvalues --   -0.38572  -0.36380  -0.35653  -0.34604  -0.34412
 Alpha  occ. eigenvalues --   -0.34148  -0.32905  -0.25495  -0.23300  -0.23061
 Alpha  occ. eigenvalues --   -0.20677
 Alpha virt. eigenvalues --    0.07378   0.08489   0.10129   0.10977   0.12703
 Alpha virt. eigenvalues --    0.13564   0.13757   0.14380   0.15382   0.15522
 Alpha virt. eigenvalues --    0.16334   0.17593   0.17892   0.18362   0.18728

 Mulliken charges:
               1
     1  C   -0.385690
     2  C   -0.086490
     3  N   -0.263157
     4  N   -0.053046
     5  C   -0.266857
     6  N   -0.274623
     7  C   -0.111322
     8  C   -0.165749
     9  C   -0.146761
    10  N   -0.509296
    11  H    0.113841
    12  H    0.125597
    13  H    0.109298
    14  H    0.111868
    15  H    0.082808
    16  H    0.187621
    17  H    0.121517
    18  H    0.121122
    19  H    0.082914
    20  H    0.188855
    21  H    0.109914
    22  H    0.082500
    23  H    0.100732
    24  H    0.099396
    25  H    0.078563
    26  H    0.100340
    27  H    0.222268
    28  H    0.223835
 Sum of Mulliken charges =  -0.00000

 Dipole moment (field-independent basis, Debye):
    X=              0.5620    Y=             -0.8964    Z=             -0.0336  Tot=              1.0586
 Quadrupole moment (field-independent basis, Debye-Ang):
   XX=            -63.3594   YY=            -63.1635   ZZ=            -63.7108
   XY=              0.2357   XZ=             -7.0952   YZ=              0.7782

  Exact polarizability: 118.929   1.074 100.144  -0.164   0.825  82.524
 Approx polarizability: 137.717   1.327 135.211   0.885   0.144 129.322

                      1                      2                      3
                      A                      A                      A
 Frequencies --     14.6704                43.0535                63.3871
 Red. masses --      1.7760                 2.4752                 2.3116
 Frc consts  --      0.0002                 0.0027                 0.0055
 IR Inten    --      0.8588                 1.7557                 0.2649

                      4                      5                      6
                      A                      A                      A
 Frequencies --     82.3768                95.9622               128.4615
 Red. masses --      3.1190                 2.4882                 2.2591
 Frc consts  --      0.0125                 0.0135                 0.0220
 IR Inten    --      0.8873                 1.6094                 1.4232

                      7                      8                      9
                      A                      A                      A
 Frequencies --    152.4844               188.7386               236.1356
 Red. masses --      2.4895                 2.4081                 1.4672
 Frc consts  --      0.0341                 0.0505                 0.0482
 IR Inten    --      3.5826                 2.5546                 5.1571

                     10                     11                     12
                      A                      A                      A
 Frequencies --    252.5147               262.4758               279.6117
 Red. masses --      1.1886                 1.3007                 2.1113
 Frc consts  --      0.0447                 0.0528                 0.0973
 IR Inten    --      1.1935                22.5806                10.1990

                     13                     14                     15
                      A                      A                      A
 Frequencies --    307.6049               367.0837               443.9701
 Red. masses --      2.0826                 3.4495                 3.0849
 Frc consts  --      0.1161                 0.2739                 0.3583
 IR Inten    --      2.6536                 5.3651                 5.7210

                     16                     17                     18
                      A                      A                      A
 Frequencies --    488.6204               497.2538               563.9577
 Red. masses --      2.4695                 2.6997                 3.3148
 Frc consts  --      0.3474                 0.3933                 0.6212
 IR Inten    --     10.0505                12.3910                 4.3517

                     19                     20                     21
                      A                      A                      A
 Frequencies --    703.1698               759.3516               768.2714
 Red. masses --      1.6144                 2.2401                 1.0815
 Frc consts  --      0.4703                 0.7610                 0.3761
 IR Inten    --     59.6864                50.0647                 1.9728

                     22                     23                     24
                      A                      A                      A
 Frequencies --    810.6259               848.7803               891.9304
 Red. masses --      1.1137                 1.2143                 1.4400
 Frc consts  --      0.4312                 0.5154                 0.6750
 IR Inten    --      2.5854                73.5995                57.6332

                     25                     26                     27
                      A                      A                      A
 Frequencies --    920.8621               944.2333               981.8337
 Red. masses --      1.4410                 2.0422                 2.4612
 Frc consts  --      0.7199                 1.0728                 1.3979
 IR Inten    --     18.7389                64.8679                 4.1880

                     28                     29                     30
                      A                      A                      A
 Frequencies --   1008.0120              1047.3094              1080.4185
 Red. masses --      2.0227                 2.8119                 2.8860
 Frc consts  --      1.2109                 1.8172                 1.9849
 IR Inten    --      1.2811                 1.4448                17.3934

                     31                     32                     33
                      A                      A                      A
 Frequencies --   1086.4993              1106.2946              1128.7743
 Red. masses --      2.5040                 2.8851                 1.6941
 Frc consts  --      1.7416                 2.0805                 1.2718
 IR Inten    --     21.9542                 5.7132                 4.1755

                     34                     35                     36
                      A                      A                      A
 Frequencies --   1139.8126              1151.5099              1170.8955
 Red. masses --      1.9723                 1.9267                 1.4360
 Frc consts  --      1.5097                 1.5052                 1.1600
 IR Inten    --      8.7367                13.5041                16.5108

                     37                     38                     39
                      A                      A                      A
 Frequencies --   1210.8372              1220.0329              1227.6082
 Red. masses --      1.8526                 2.1094                 2.9635
 Frc consts  --      1.6003                 1.8499                 2.6314
 IR Inten    --      0.1247                 1.1409                 5.9122

                     40                     41                     42
                      A                      A                      A
 Frequencies --   1262.6182              1287.2128              1308.5898
 Red. masses --      1.4080                 1.1816                 1.2486
 Frc consts  --      1.3225                 1.1535                 1.2597
 IR Inten    --      3.5629                 2.6239                 3.0979

                     43                     44                     45
                      A                      A                      A
 Frequencies --   1309.2354              1338.5271              1375.3235
 Red. masses --      1.1245                 1.2014                 1.3173
 Frc consts  --      1.1357                 1.2682                 1.4680
 IR Inten    --      0.5122                 0.2688                11.2355

                     46                     47                     48
                      A                      A                      A
 Frequencies --   1400.7097              1409.8006              1432.6421
 Red. masses --      1.3613                 1.3034                 1.4828
 Frc consts  --      1.5736                 1.5263                 1.7931
 IR Inten    --      5.7741                 5.1576                19.3139

                     49                     50                     51
                      A                      A                      A
 Frequencies --   1436.4376              1462.9363              1478.3730
 Red. masses --      1.1690                 1.1563                 1.0689
 Frc consts  --      1.4211                 1.4580                 1.3765
 IR Inten    --      1.1259                 0.8870                 4.6623

                     52                     53                     54
                      A                      A                      A
 Frequencies --   1490.9280              1491.2270              1495.4868
 Red. masses --      1.0511                 1.0737                 1.0512
 Frc consts  --      1.3766                 1.4067                 1.3852
 IR Inten    --      7.1588                 3.2395                 1.3456

                     55                     56                     57
                      A                      A                      A
 Frequencies --   1497.8512              1510.2338              1519.9297
 Red. masses --      1.0419                 1.0850                 1.0961
 Frc consts  --      1.3772                 1.4580                 1.4920
 IR Inten    --      2.7322                 5.0860                 0.8687

                     58                     59                     60
                      A                      A                      A
 Frequencies --   1524.3968              1542.0093              1659.4404
 Red. masses --      1.1032                 1.2121                 1.0884
 Frc consts  --      1.5105                 1.6981                 1.7660
 IR Inten    --      0.9082                 9.3111                21.5270

                     61                     62                     63
                      A                      A                      A
 Frequencies --   2935.0597              2948.2770              2953.8610
 Red. masses --      1.0723                 1.0595                 1.0715
 Frc consts  --      5.4428                 5.4263                 5.5081
 IR Inten    --     68.1006                80.4113                30.4958

                     64                     65                     66
                      A                      A                      A
 Frequencies --   2981.4179              3023.2722              3031.9981
 Red. masses --      1.0698                 1.0600                 1.0378
 Frc consts  --      5.6029                 5.7085                 5.6210
 IR Inten    --     83.3794                22.1501                24.4821

                     67                     68                     69
                      A                      A                      A
 Frequencies --   3034.0107              3060.1543              3073.1627
 Red. masses --      1.0856                 1.0948                 1.0888
 Frc consts  --      5.8881                 6.0405                 6.0587
 IR Inten    --     24.9216                19.3710                 1.4494

                     70                     71                     72
                      A                      A                      A
 Frequencies --   3080.1878              3095.3299              3099.8284
 Red. masses --      1.0966                 1.0706                 1.0979
 Frc consts  --      6.1302                 6.0436                 6.2154
 IR Inten    --     50.5102                28.8706                47.1131

                     73                     74                     75
                      A                      A                      A
 Frequencies --   3119.8338              3148.4126              3365.0909
 Red. masses --      1.1024                 1.1053                 1.0712
 Frc consts  --      6.3222                 6.4555                 7.1465
 IR Inten    --     26.9890                21.8383                20.9493

                     76                     77                     78
                      A                      A                      A
 Frequencies --   3384.5906              3483.1858              3560.5972
 Red. masses --      1.0740                 1.0496                 1.0917
 Frc consts  --      7.2491                 7.5025                 8.1546
 IR Inten    --      8.7149                 1.2555                 0.2210

 - Thermochemistry -
 -------------------
 Temperature   298.150 Kelvin.  Pressure   1.00000 Atm.
 Atom     1 has atomic number  6 and mass  12.00000

 Molecular mass:   146.15315 amu.
 Principal axes and moments of inertia in atomic units:
                           1         2         3
     Eigenvalues --   882.436593700.895934420.94470
           X            0.99997   0.00644  -0.00517
           Y           -0.00641   0.99996   0.00547
           Z            0.00521  -0.00544   0.99997
 This molecule is an asymmetric top.
 Rotational symmetry number  1.
 Warning -- assumption of classical behavior for rotation
           may cause significant error
 Rotational temperatures (Kelvin)      0.09815     0.02340     0.01959
 Rotational constants (GHZ):           2.04518     0.48765     0.40823
 Zero-point vibrational energy     671629.0 (Joules/Mol)
                                  160.52319 (Kcal/Mol)
 Warning -- explicit consideration of  18 degrees of freedom as
           vibrations may cause significant error
 Vibrational temperatures:     21.11    61.94    91.20   118.52   138.07
          (Kelvin)            184.83   219.39   271.55   339.75   363.31
                              377.64   402.30   442.57   528.15   638.77
                              703.02   715.44   811.41  1011.70  1092.54
                             1105.37  1166.31  1221.21  1283.29  1324.92
                             1358.54  1412.64  1450.30  1506.84  1554.48
                             1563.23  1591.71  1624.05  1639.94  1656.77
                             1684.66  1742.12  1755.36  1766.25  1816.63
                             1852.01  1882.77  1883.70  1925.84  1978.78
                             2015.31  2028.39  2061.25  2066.71  2104.84
                             2127.05  2145.11  2145.54  2151.67  2155.07
                             2172.89  2186.84  2193.27  2218.61  2387.56
                             4222.90  4241.91  4249.95  4289.60  4349.81
                             4362.37  4365.26  4402.88  4421.60  4431.70
                             4453.49  4459.96  4488.74  4529.86  4841.62
                             4869.67  5011.53  5122.91

 Zero-point correction=                           0.255810 (Hartree/Particle)
 Thermal correction to Energy=                    0.269226
 Thermal correction to Enthalpy=                  0.270170
 Thermal correction to Gibbs Free Energy=         0.213929
 Sum of electronic and zero-point Energies=           -458.182988
 Sum of electronic and thermal Energies=              -458.169571
 Sum of electronic and thermal Enthalpies=            -458.168627
 Sum of electronic and thermal Free Energies=         -458.224869

                     E (Thermal)             CV                S
                      KCal/Mol        Cal/Mol-Kelvin    Cal/Mol-Kelvin
 Total                  168.942             47.130            118.370
 Electronic               0.000              0.000              0.000
 Translational            0.889              2.981             40.849
 Rotational               0.889              2.981             31.046
 Vibrational            167.165             41.169             46.475
 Vibration     1          0.593              1.986              7.250
 Vibration     2          0.595              1.980              5.113
 Vibration     3          0.597              1.972              4.349
 Vibration     4          0.600              1.961              3.833
 Vibration     5          0.603              1.952              3.535
 Vibration     6          0.611              1.925              2.969
 Vibration     7          0.619              1.900              2.641
 Vibration     8          0.633              1.855              2.240
 Vibration     9          0.655              1.785              1.832
 Vibration    10          0.664              1.759              1.713
 Vibration    11          0.670              1.742              1.645
 Vibration    12          0.680              1.711              1.536
 Vibration    13          0.697              1.659              1.375
 Vibration    14          0.740              1.540              1.092
 Vibration    15          0.803              1.374              0.814
 Vibration    16          0.845              1.275              0.687
 Vibration    17          0.853              1.256              0.665
 Vibration    18          0.920              1.109              0.516

                           ! Non-Optimized Parameters !
 Normal termination of Gaussian 16 at Tue Jun  1 09:48:58 2021.
