 Gaussian 16, Revision A.03,
 Gaussian 16:  ES64L-G16RevA.03 25-Dec-2016

 -----------------------------
 # opt freq b3lyp/6-31g(2df,p)
 -----------------------------

 -------------------
 Title Card Required
 -------------------
 Symbolic Z-matrix:
 Charge =  0 Multiplicity = 1

 SCF Done:  E(RB3LYP) =  -403.109651139     A.U. after   12 cycles
 SCF Done:  E(RB3LYP) =  -403.117106954     A.U. after   11 cycles
 SCF Done:  E(RB3LYP) =  -403.119298543     A.U. after   10 cycles
 SCF Done:  E(RB3LYP) =  -403.121863610     A.U. after   10 cycles
 SCF Done:  E(RB3LYP) =  -403.122803153     A.U. after   10 cycles
 SCF Done:  E(RB3LYP) =  -403.123780005     A.U. after   11 cycles
 SCF Done:  E(RB3LYP) =  -403.124142994     A.U. after   11 cycles
 SCF Done:  E(RB3LYP) =  -403.125419491     A.U. after   10 cycles
 SCF Done:  E(RB3LYP) =  -403.126896465     A.U. after   11 cycles
 SCF Done:  E(RB3LYP) =  -403.126836618     A.U. after   10 cycles
 SCF Done:  E(RB3LYP) =  -403.127248096     A.U. after    8 cycles
 SCF Done:  E(RB3LYP) =  -403.127266575     A.U. after    9 cycles
 SCF Done:  E(RB3LYP) =  -403.127284718     A.U. after   10 cycles
 SCF Done:  E(RB3LYP) =  -403.127296066     A.U. after    9 cycles
 SCF Done:  E(RB3LYP) =  -403.127304827     A.U. after   10 cycles
 SCF Done:  E(RB3LYP) =  -403.127308849     A.U. after    9 cycles
 SCF Done:  E(RB3LYP) =  -403.127309419     A.U. after    7 cycles
 SCF Done:  E(RB3LYP) =  -403.127309717     A.U. after    7 cycles
 SCF Done:  E(RB3LYP) =  -403.127309770     A.U. after    6 cycles
 Optimization completed.
    -- Stationary point found.
 Normal termination of Gaussian 16 at Mon May 31 15:43:01 2021.

 ----------------------------------------------------------------------
 #N Geom=AllCheck Guess=TCheck SCRF=Check GenChk RB3LYP/6-31G(2df,p) Fr
 eq
 ----------------------------------------------------------------------

 Structure from the checkpoint file:  "CCNpCCNpCNC.chk"
 -------------------
 Title Card Required
 -------------------
 Charge =  0 Multiplicity = 1

                         Standard orientation:
 ---------------------------------------------------------------------
 Center     Atomic      Atomic             Coordinates (Angstroms)
 Number     Number       Type             X           Y           Z
 ---------------------------------------------------------------------
      1          6           0        2.185326    2.070793   -0.452538
      2          6           0        0.846540    1.947607    0.275623
      3          7           0        0.158192    0.692687   -0.014500
      4          6           0        0.791274   -0.489360    0.576235
      5          6           0        1.091974   -1.571726   -0.466979
      6          7           0        1.600476   -2.780359    0.190193
      7          6           0       -1.267053    0.773687    0.258952
      8          7           0       -2.001258   -0.364624   -0.278720
      9          6           0       -3.444606   -0.188745   -0.166896
     10          1           0        2.644785    3.041716   -0.240507
     11          1           0        2.040776    1.978371   -1.532757
     12          1           0        2.894223    1.297527   -0.139992
     13          1           0        0.194684    2.764552   -0.054173
     14          1           0        1.000924    2.096078    1.362566
     15          1           0        0.165546   -0.925791    1.371542
     16          1           0        1.727836   -0.199815    1.070663
     17          1           0        1.767573   -1.142394   -1.225478
     18          1           0        0.163778   -1.821857   -0.989644
     19          1           0        2.527247   -2.603058    0.568975
     20          1           0        1.719881   -3.520116   -0.494741
     21          1           0       -1.653912    1.671966   -0.237021
     22          1           0       -1.463780    0.903675    1.352295
     23          1           0       -1.738667   -1.202008    0.231398
     24          1           0       -3.766151    0.628945   -0.822079
     25          1           0       -3.798484    0.044839    0.853842
     26          1           0       -3.948863   -1.100101   -0.500073
 ---------------------------------------------------------------------

 SCF Done:  E(RB3LYP) =  -403.127309770     A.U. after    1 cycles

 The electronic state is 1-A.
 Alpha  occ. eigenvalues --  -14.30961 -14.30831 -14.30214 -10.22178 -10.20210
 Alpha  occ. eigenvalues --  -10.19706 -10.19669 -10.19169 -10.17035  -0.93039
 Alpha  occ. eigenvalues --   -0.87825  -0.86587  -0.74547  -0.71642  -0.66888
 Alpha  occ. eigenvalues --   -0.61739  -0.60658  -0.56652  -0.50237  -0.48153
 Alpha  occ. eigenvalues --   -0.46846  -0.45833  -0.43848  -0.43335  -0.41709
 Alpha  occ. eigenvalues --   -0.40154  -0.39359  -0.38742  -0.36958  -0.35690
 Alpha  occ. eigenvalues --   -0.35528  -0.34374  -0.33191  -0.32587  -0.23135
 Alpha  occ. eigenvalues --   -0.22238  -0.20220
 Alpha virt. eigenvalues --    0.07636   0.09009   0.09817   0.11505   0.12689
 Alpha virt. eigenvalues --    0.13309   0.14680   0.15440   0.16587   0.16735
 Alpha virt. eigenvalues --    0.17292   0.17706   0.18388   0.19175   0.19362

 Mulliken charges:
               1
     1  C   -0.381738
     2  C   -0.118787
     3  N   -0.055201
     4  C   -0.153538
     5  C   -0.144626
     6  N   -0.513273
     7  C   -0.086760
     8  N   -0.289094
     9  C   -0.309865
    10  H    0.109416
    11  H    0.123642
    12  H    0.113938
    13  H    0.097072
    14  H    0.074929
    15  H    0.092314
    16  H    0.087526
    17  H    0.081120
    18  H    0.117858
    19  H    0.220663
    20  H    0.226361
    21  H    0.098460
    22  H    0.051947
    23  H    0.223411
    24  H    0.121751
    25  H    0.093524
    26  H    0.118949
 Sum of Mulliken charges =  -0.00000

 Dipole moment (field-independent basis, Debye):
    X=              0.5783    Y=              0.2233    Z=              0.3890  Tot=              0.7318
 Quadrupole moment (field-independent basis, Debye-Ang):
   XX=            -52.7404   YY=            -56.6381   ZZ=            -61.1495
   XY=             -1.9065   XZ=             -1.0122   YZ=              2.2702

  Exact polarizability: 102.698   1.126  96.359   0.164   1.064  75.450
 Approx polarizability: 126.569  -0.170 126.755   2.042   0.337 115.781

                      1                      2                      3
                      A                      A                      A
 Frequencies --     41.9103                66.9351                80.9815
 Red. masses --      2.8455                 2.3940                 2.3510
 Frc consts  --      0.0029                 0.0063                 0.0091
 IR Inten    --      1.3761                 5.2905                 1.0681

                      4                      5                      6
                      A                      A                      A
 Frequencies --    106.2731               141.8726               144.2683
 Red. masses --      2.1849                 2.3970                 1.5979
 Frc consts  --      0.0145                 0.0284                 0.0196
 IR Inten    --      0.4675                 0.7512                 2.5885

                      7                      8                      9
                      A                      A                      A
 Frequencies --    203.7219               238.4600               248.4689
 Red. masses --      1.8685                 1.1275                 1.2575
 Frc consts  --      0.0457                 0.0378                 0.0457
 IR Inten    --      2.1221                15.2403                 1.4846

                     10                     11                     12
                      A                      A                      A
 Frequencies --    266.3125               308.5412               350.4542
 Red. masses --      1.4742                 2.5507                 2.5547
 Frc consts  --      0.0616                 0.1431                 0.1849
 IR Inten    --     21.0198                 1.1095                 0.8666

                     13                     14                     15
                      A                      A                      A
 Frequencies --    370.4192               411.8897               473.7543
 Red. masses --      2.9078                 2.8903                 3.6846
 Frc consts  --      0.2351                 0.2889                 0.4872
 IR Inten    --      2.0524                 2.7017                 6.6826

                     16                     17                     18
                      A                      A                      A
 Frequencies --    552.1160               784.6817               802.6185
 Red. masses --      2.5954                 1.1381                 1.1987
 Frc consts  --      0.4661                 0.4129                 0.4550
 IR Inten    --      0.8017                17.1859                47.1541

                     19                     20                     21
                      A                      A                      A
 Frequencies --    816.0210               846.7664               876.5350
 Red. masses --      1.1727                 1.9479                 1.6731
 Frc consts  --      0.4601                 0.8229                 0.7574
 IR Inten    --     23.2916                89.2007                43.0993

                     22                     23                     24
                      A                      A                      A
 Frequencies --    948.5911               979.4356              1005.4390
 Red. masses --      2.1001                 2.1943                 2.1867
 Frc consts  --      1.1134                 1.2402                 1.3024
 IR Inten    --      2.2412                 3.7406                 6.0859

                     25                     26                     27
                      A                      A                      A
 Frequencies --   1041.1745              1068.3406              1079.6437
 Red. masses --      1.3619                 2.5832                 2.4667
 Frc consts  --      0.8698                 1.7371                 1.6941
 IR Inten    --     15.8860                28.6681                10.9723

                     28                     29                     30
                      A                      A                      A
 Frequencies --   1093.4143              1128.1945              1134.9229
 Red. masses --      2.2944                 1.8059                 2.1361
 Frc consts  --      1.6161                 1.3543                 1.6211
 IR Inten    --     36.4393                 4.4288                54.0282

                     31                     32                     33
                      A                      A                      A
 Frequencies --   1147.8190              1170.5684              1183.2230
 Red. masses --      1.6393                 1.6349                 2.1218
 Frc consts  --      1.2725                 1.3199                 1.7502
 IR Inten    --     18.1270                30.0861                22.4103

                     34                     35                     36
                      A                      A                      A
 Frequencies --   1255.7871              1270.7238              1287.8843
 Red. masses --      1.9025                 1.9491                 1.4344
 Frc consts  --      1.7677                 1.8544                 1.4018
 IR Inten    --     18.1243                25.4886                22.9776

                     37                     38                     39
                      A                      A                      A
 Frequencies --   1314.4831              1333.2548              1338.6775
 Red. masses --      1.1880                 1.2297                 1.1503
 Frc consts  --      1.2094                 1.2879                 1.2145
 IR Inten    --      6.1079                17.0825                 2.9916

                     40                     41                     42
                      A                      A                      A
 Frequencies --   1373.5786              1393.2048              1406.5766
 Red. masses --      1.2603                 1.3686                 1.2804
 Frc consts  --      1.4009                 1.5652                 1.4925
 IR Inten    --      9.4985                37.7736                28.4674

                     43                     44                     45
                      A                      A                      A
 Frequencies --   1425.4757              1438.0746              1460.7805
 Red. masses --      1.4291                 1.3048                 1.1789
 Frc consts  --      1.7109                 1.5899                 1.4822
 IR Inten    --      1.1363                 3.5527                 0.9809

                     46                     47                     48
                      A                      A                      A
 Frequencies --   1482.3102              1486.8416              1490.7156
 Red. masses --      1.0929                 1.0651                 1.0715
 Frc consts  --      1.4148                 1.3872                 1.4030
 IR Inten    --      7.3591                15.9335                 4.9748

                     49                     50                     51
                      A                      A                      A
 Frequencies --   1497.9636              1506.2541              1510.0220
 Red. masses --      1.1215                 1.0736                 1.0835
 Frc consts  --      1.4827                 1.4352                 1.4556
 IR Inten    --      6.1050                 4.6652                 3.9800

                     52                     53                     54
                      A                      A                      A
 Frequencies --   1518.2514              1522.0993              1524.6881
 Red. masses --      1.0832                 1.0850                 1.0927
 Frc consts  --      1.4711                 1.4810                 1.4966
 IR Inten    --      7.0418                 2.6597                10.4701

                     55                     56                     57
                      A                      A                      A
 Frequencies --   1659.8492              2782.4004              2906.7708
 Red. masses --      1.0889                 1.0715                 1.0731
 Frc consts  --      1.7676                 4.8875                 5.3419
 IR Inten    --     22.4385               118.0555                86.5817

                     58                     59                     60
                      A                      A                      A
 Frequencies --   2939.3946              2959.3617              2975.6030
 Red. masses --      1.0598                 1.0718                 1.0666
 Frc consts  --      5.3951                 5.5307                 5.5644
 IR Inten    --    101.2990                22.2730                88.5448

                     61                     62                     63
                      A                      A                      A
 Frequencies --   3029.6170              3037.2635              3038.2500
 Red. masses --      1.0910                 1.0388                 1.0840
 Frc consts  --      5.9002                 5.6459                 5.8954
 IR Inten    --     23.7174                27.7108                14.3385

                     64                     65                     66
                      A                      A                      A
 Frequencies --   3052.0835              3054.3465              3084.9370
 Red. masses --      1.0849                 1.0744                 1.0904
 Frc consts  --      5.9544                 5.9055                 6.1139
 IR Inten    --     28.3824                52.7581                27.2438

                     67                     68                     69
                      A                      A                      A
 Frequencies --   3103.8439              3105.6243              3116.2258
 Red. masses --      1.1002                 1.1003                 1.1024
 Frc consts  --      6.2450                 6.2528                 6.3071
 IR Inten    --     41.2608                29.9803                27.3449

                     70                     71                     72
                      A                      A                      A
 Frequencies --   3484.1783              3515.4725              3562.8353
 Red. masses --      1.0502                 1.0734                 1.0910
 Frc consts  --      7.5117                 7.8159                 8.1595
 IR Inten    --      1.2015                 0.0447                 0.0209

 - Thermochemistry -
 -------------------
 Temperature   298.150 Kelvin.  Pressure   1.00000 Atm.
 Atom     1 has atomic number  6 and mass  12.00000

 Molecular mass:   131.14225 amu.
 Principal axes and moments of inertia in atomic units:
                           1         2         3
     Eigenvalues --  1211.614081633.380842653.96474
           X            0.99969   0.02405  -0.00646
           Y           -0.02402   0.99970   0.00469
           Z            0.00657  -0.00453   0.99997
 This molecule is an asymmetric top.
 Rotational symmetry number  1.
 Warning -- assumption of classical behavior for rotation
           may cause significant error
 Rotational temperatures (Kelvin)      0.07149     0.05303     0.03264
 Rotational constants (GHZ):           1.48953     1.10491     0.68002
 Zero-point vibrational energy     630189.6 (Joules/Mol)
                                  150.61893 (Kcal/Mol)
 Warning -- explicit consideration of  16 degrees of freedom as
           vibrations may cause significant error
 Vibrational temperatures:     60.30    96.30   116.51   152.90   204.12
          (Kelvin)            207.57   293.11   343.09   357.49   383.16
                              443.92   504.23   532.95   592.62   681.63
                              794.37  1128.98  1154.79  1174.07  1218.31
                             1261.14  1364.81  1409.19  1446.60  1498.02
                             1537.10  1553.37  1573.18  1623.22  1632.90
                             1651.46  1684.19  1702.39  1806.80  1828.29
                             1852.98  1891.25  1918.26  1926.06  1976.27
                             2004.51  2023.75  2050.94  2069.07  2101.74
                             2132.71  2139.23  2144.81  2155.24  2167.16
                             2172.58  2184.43  2189.96  2193.69  2388.15
                             4003.25  4182.19  4229.13  4257.86  4281.23
                             4358.94  4369.94  4371.36  4391.27  4394.52
                             4438.54  4465.74  4468.30  4483.55  5012.96
                             5057.98  5126.13

 Zero-point correction=                           0.240027 (Hartree/Particle)
 Thermal correction to Energy=                    0.252016
 Thermal correction to Enthalpy=                  0.252961
 Thermal correction to Gibbs Free Energy=         0.201674
 Sum of electronic and zero-point Energies=           -402.887283
 Sum of electronic and thermal Energies=              -402.875293
 Sum of electronic and thermal Enthalpies=            -402.874349
 Sum of electronic and thermal Free Energies=         -402.925636

                     E (Thermal)             CV                S
                      KCal/Mol        Cal/Mol-Kelvin    Cal/Mol-Kelvin
 Total                  158.143             42.295            107.942
 Electronic               0.000              0.000              0.000
 Translational            0.889              2.981             40.526
 Rotational               0.889              2.981             30.042
 Vibrational            156.365             36.334             37.375
 Vibration     1          0.595              1.980              5.167
 Vibration     2          0.598              1.970              4.242
 Vibration     3          0.600              1.962              3.867
 Vibration     4          0.605              1.944              3.336
 Vibration     5          0.615              1.911              2.778
 Vibration     6          0.616              1.909              2.746
 Vibration     7          0.639              1.835              2.099
 Vibration     8          0.656              1.782              1.814
 Vibration     9          0.662              1.765              1.741
 Vibration    10          0.672              1.735              1.620
 Vibration    11          0.698              1.657              1.370
 Vibration    12          0.727              1.574              1.164
 Vibration    13          0.742              1.533              1.078
 Vibration    14          0.776              1.444              0.920
 Vibration    15          0.831              1.308              0.727
 Vibration    16          0.907              1.135              0.540

 Optimization completed.
    -- Stationary point found.
 Normal termination of Gaussian 16 at Mon May 31 16:22:15 2021.
