 Gaussian 16, Revision A.03,
 Gaussian 16:  ES64L-G16RevA.03 25-Dec-2016

 -----------------------------
 # opt freq b3lyp/6-31g(2df,p)
 -----------------------------

 -------------------
 Title Card Required
 -------------------
 Symbolic Z-matrix:
 Charge =  0 Multiplicity = 1

 SCF Done:  E(RB3LYP) =  -363.810720184     A.U. after   12 cycles
 SCF Done:  E(RB3LYP) =  -363.815582094     A.U. after   11 cycles
 SCF Done:  E(RB3LYP) =  -363.816633214     A.U. after   10 cycles
 SCF Done:  E(RB3LYP) =  -363.817029774     A.U. after   10 cycles
 SCF Done:  E(RB3LYP) =  -363.817249657     A.U. after   10 cycles
 SCF Done:  E(RB3LYP) =  -363.817309868     A.U. after   10 cycles
 SCF Done:  E(RB3LYP) =  -363.817449669     A.U. after   10 cycles
 SCF Done:  E(RB3LYP) =  -363.817670894     A.U. after   11 cycles
 SCF Done:  E(RB3LYP) =  -363.817735425     A.U. after    9 cycles
 SCF Done:  E(RB3LYP) =  -363.818050061     A.U. after   11 cycles
 SCF Done:  E(RB3LYP) =  -363.818409869     A.U. after   11 cycles
 SCF Done:  E(RB3LYP) =  -363.822363429     A.U. after    8 cycles
 SCF Done:  E(RB3LYP) =  -363.823036375     A.U. after   11 cycles
 SCF Done:  E(RB3LYP) =  -363.823363422     A.U. after   10 cycles
 SCF Done:  E(RB3LYP) =  -363.823392486     A.U. after    8 cycles
 SCF Done:  E(RB3LYP) =  -363.823398627     A.U. after    8 cycles
 SCF Done:  E(RB3LYP) =  -363.823399366     A.U. after    7 cycles
 SCF Done:  E(RB3LYP) =  -363.823399677     A.U. after    7 cycles
 SCF Done:  E(RB3LYP) =  -363.823399725     A.U. after    6 cycles
 Optimization completed.
    -- Stationary point found.
 Normal termination of Gaussian 16 at Tue Jun  1 06:49:44 2021.

 ----------------------------------------------------------------------
 #N Geom=AllCheck Guess=TCheck SCRF=Check GenChk RB3LYP/6-31G(2df,p) Fr
 eq
 ----------------------------------------------------------------------

 Structure from the checkpoint file:  "CCNpCpCNCN.chk"
 -------------------
 Title Card Required
 -------------------
 Charge =  0 Multiplicity = 1

                         Standard orientation:
 ---------------------------------------------------------------------
 Center     Atomic      Atomic             Coordinates (Angstroms)
 Number     Number       Type             X           Y           Z
 ---------------------------------------------------------------------
      1          6           0       -3.037658   -0.923926   -0.522256
      2          6           0       -2.099076   -0.366850    0.548818
      3          7           0       -0.850469    0.156861    0.006319
      4          6           0       -1.036819    1.347785   -0.811381
      5          6           0        0.156289    0.370361    1.040286
      6          7           0        1.471387    0.538018    0.453132
      7          6           0        2.104333   -0.693756    0.013124
      8          7           0        3.389088   -0.351142   -0.586852
      9          1           0       -3.898564   -1.408063   -0.050699
     10          1           0       -2.517164   -1.663405   -1.138339
     11          1           0       -3.423738   -0.141618   -1.181752
     12          1           0       -1.842063   -1.174194    1.244619
     13          1           0       -2.638020    0.398618    1.143976
     14          1           0       -1.608787    1.113639   -1.712697
     15          1           0       -0.055427    1.719149   -1.110639
     16          1           0       -1.566315    2.155724   -0.268432
     17          1           0        0.100756   -0.495282    1.724168
     18          1           0       -0.051417    1.274040    1.645665
     19          1           0        2.094087    1.028496    1.084907
     20          1           0        1.391107   -1.191617   -0.660690
     21          1           0        2.307106   -1.394451    0.845577
     22          1           0        3.226672    0.168467   -1.444836
     23          1           0        3.889318   -1.197338   -0.840557
 ---------------------------------------------------------------------

 SCF Done:  E(RB3LYP) =  -363.823399725     A.U. after    1 cycles

 The electronic state is 1-A.
 Alpha  occ. eigenvalues --  -14.31088 -14.30619 -14.30321 -10.22299 -10.21954
 Alpha  occ. eigenvalues --  -10.20018 -10.18561 -10.16978  -0.93385  -0.89485
 Alpha  occ. eigenvalues --   -0.83880  -0.73992  -0.68774  -0.64703  -0.60708
 Alpha  occ. eigenvalues --   -0.56326  -0.50383  -0.48434  -0.47506  -0.46243
 Alpha  occ. eigenvalues --   -0.43486  -0.41504  -0.40439  -0.39492  -0.38149
 Alpha  occ. eigenvalues --   -0.37529  -0.36020  -0.34899  -0.34255  -0.33246
 Alpha  occ. eigenvalues --   -0.23953  -0.22291  -0.20532
 Alpha virt. eigenvalues --    0.08920   0.09316   0.10928   0.12752   0.13238
 Alpha virt. eigenvalues --    0.14415   0.15490   0.16400   0.17118   0.17242
 Alpha virt. eigenvalues --    0.17719   0.18588   0.19339   0.20730   0.21279

 Mulliken charges:
               1
     1  C   -0.388038
     2  C   -0.104375
     3  N   -0.037198
     4  C   -0.323630
     5  C   -0.117722
     6  N   -0.268583
     7  C   -0.084475
     8  N   -0.515491
     9  H    0.111274
    10  H    0.120712
    11  H    0.119111
    12  H    0.095634
    13  H    0.070668
    14  H    0.113435
    15  H    0.132102
    16  H    0.081305
    17  H    0.076177
    18  H    0.072498
    19  H    0.219904
    20  H    0.101186
    21  H    0.074735
    22  H    0.226624
    23  H    0.224148
 Sum of Mulliken charges =  -0.00000

 Dipole moment (field-independent basis, Debye):
    X=             -0.3165    Y=             -0.6356    Z=              0.0664  Tot=              0.7132
 Quadrupole moment (field-independent basis, Debye-Ang):
   XX=            -52.9905   YY=            -51.0034   ZZ=            -49.2465
   XY=             -2.6507   XZ=             -2.1083   YZ=              0.5970

  Exact polarizability:  95.120  -0.652  74.508  -1.160  -1.052  72.789
 Approx polarizability: 113.803  -1.135 108.022  -1.828  -1.715 105.064

                      1                      2                      3
                      A                      A                      A
 Frequencies --     55.8810                74.9949                90.2070
 Red. masses --      3.1864                 2.9198                 1.7708
 Frc consts  --      0.0059                 0.0097                 0.0085
 IR Inten    --      0.8965                 1.1904                 1.7547

                      4                      5                      6
                      A                      A                      A
 Frequencies --    121.9857               221.8217               231.0085
 Red. masses --      2.0445                 1.0705                 1.9282
 Frc consts  --      0.0179                 0.0310                 0.0606
 IR Inten    --      3.4815                 0.3466                14.6282

                      7                      8                      9
                      A                      A                      A
 Frequencies --    247.2915               280.3744               314.3397
 Red. masses --      1.5378                 1.4036                 1.7355
 Frc consts  --      0.0554                 0.0650                 0.1010
 IR Inten    --     15.8698                 8.9454                 7.5038

                     10                     11                     12
                      A                      A                      A
 Frequencies --    339.2212               379.8254               388.4774
 Red. masses --      2.8400                 2.7937                 2.0442
 Frc consts  --      0.1925                 0.2375                 0.1818
 IR Inten    --      8.8677                 2.4240                 3.9938

                     13                     14                     15
                      A                      A                      A
 Frequencies --    489.8890               600.8532               752.6945
 Red. masses --      2.4774                 3.1469                 1.4541
 Frc consts  --      0.3503                 0.6694                 0.4854
 IR Inten    --      4.1167                 8.0431                71.6412

                     16                     17                     18
                      A                      A                      A
 Frequencies --    810.6763               834.9925               869.2327
 Red. masses --      1.1352                 2.7205                 1.2720
 Frc consts  --      0.4395                 1.1176                 0.5663
 IR Inten    --      1.6038                 6.9634               160.4122

                     19                     20                     21
                      A                      A                      A
 Frequencies --    927.4465               963.9719              1027.4906
 Red. masses --      1.8550                 2.1340                 1.5521
 Frc consts  --      0.9401                 1.1683                 0.9655
 IR Inten    --      7.7720                 5.0707                 5.5680

                     22                     23                     24
                      A                      A                      A
 Frequencies --   1069.8098              1072.8977              1089.7441
 Red. masses --      2.1579                 2.3509                 2.1505
 Frc consts  --      1.4551                 1.5944                 1.5046
 IR Inten    --     65.9041                 3.9073                 5.3069

                     25                     26                     27
                      A                      A                      A
 Frequencies --   1123.1695              1127.8686              1165.9881
 Red. masses --      1.4358                 1.7166                 2.2160
 Frc consts  --      1.0672                 1.2866                 1.7750
 IR Inten    --      2.2401                27.3504                47.5922

                     28                     29                     30
                      A                      A                      A
 Frequencies --   1192.3007              1209.2686              1245.4439
 Red. masses --      2.3298                 1.3197                 2.1725
 Frc consts  --      1.9514                 1.1370                 1.9854
 IR Inten    --     60.3418                17.3043                31.6091

                     31                     32                     33
                      A                      A                      A
 Frequencies --   1257.7500              1308.1014              1332.1614
 Red. masses --      1.8053                 1.3086                 1.2702
 Frc consts  --      1.6826                 1.3193                 1.3281
 IR Inten    --     14.9009                 6.2122                12.5350

                     34                     35                     36
                      A                      A                      A
 Frequencies --   1351.3139              1392.1516              1405.2471
 Red. masses --      1.3065                 1.3167                 1.2915
 Frc consts  --      1.4057                 1.5035                 1.5027
 IR Inten    --      6.2952                38.1225                38.7031

                     37                     38                     39
                      A                      A                      A
 Frequencies --   1424.7366              1429.3114              1454.6976
 Red. masses --      1.2657                 1.2177                 1.3015
 Frc consts  --      1.5138                 1.4656                 1.6227
 IR Inten    --     18.7566                 3.9089                24.6342

                     40                     41                     42
                      A                      A                      A
 Frequencies --   1487.5279              1489.4630              1495.4402
 Red. masses --      1.0875                 1.0467                 1.2099
 Frc consts  --      1.4177                 1.3681                 1.5941
 IR Inten    --      4.7414                 7.0028                16.0348

                     43                     44                     45
                      A                      A                      A
 Frequencies --   1500.0068              1506.3463              1511.2291
 Red. masses --      1.0889                 1.0895                 1.0468
 Frc consts  --      1.4435                 1.4566                 1.4085
 IR Inten    --      3.5197                 2.8918                 7.3622

                     46                     47                     48
                      A                      A                      A
 Frequencies --   1520.6226              1540.2624              1642.2101
 Red. masses --      1.1149                 1.0873                 1.0990
 Frc consts  --      1.5189                 1.5198                 1.7463
 IR Inten    --      1.6435                 0.8660                31.1716

                     49                     50                     51
                      A                      A                      A
 Frequencies --   2890.9419              2905.9286              2915.7325
 Red. masses --      1.0712                 1.0620                 1.0662
 Frc consts  --      5.2747                 5.2838                 5.3403
 IR Inten    --     39.2646                59.7531               175.1655

                     52                     53                     54
                      A                      A                      A
 Frequencies --   2918.2687              2945.7906              2996.9185
 Red. masses --      1.0670                 1.0979                 1.0880
 Frc consts  --      5.3539                 5.6133                 5.7577
 IR Inten    --     74.7446                68.6890                49.5549

                     55                     56                     57
                      A                      A                      A
 Frequencies --   3040.6346              3044.6042              3083.2455
 Red. masses --      1.0356                 1.0850                 1.0712
 Frc consts  --      5.6412                 5.9256                 6.0000
 IR Inten    --     20.0250                26.5029                28.5945

                     58                     59                     60
                      A                      A                      A
 Frequencies --   3109.9904              3116.4469              3136.6864
 Red. masses --      1.1003                 1.1016                 1.1003
 Frc consts  --      6.2702                 6.3036                 6.3784
 IR Inten    --     36.3513                31.1132                 9.4609

                     61                     62                     63
                      A                      A                      A
 Frequencies --   3490.9939              3544.4243              3576.4078
 Red. masses --      1.0492                 1.0741                 1.0922
 Frc consts  --      7.5340                 7.9505                 8.2307
 IR Inten    --      0.5036                 1.6239                 0.1399

 - Thermochemistry -
 -------------------
 Temperature   298.150 Kelvin.  Pressure   1.00000 Atm.
 Atom     1 has atomic number  6 and mass  12.00000

 Molecular mass:   117.12660 amu.
 Principal axes and moments of inertia in atomic units:
                           1         2         3
     Eigenvalues --   451.751882048.955272099.27966
           X            1.00000  -0.00197   0.00121
           Y            0.00201   0.99928  -0.03778
           Z           -0.00114   0.03779   0.99929
 This molecule is an asymmetric top.
 Rotational symmetry number  1.
 Warning -- assumption of classical behavior for rotation
           may cause significant error
 Rotational temperatures (Kelvin)      0.19173     0.04227     0.04126
 Rotational constants (GHZ):           3.99498     0.88081     0.85970
 Zero-point vibrational energy     556770.5 (Joules/Mol)
                                  133.07135 (Kcal/Mol)
 Warning -- explicit consideration of  14 degrees of freedom as
           vibrations may cause significant error
 Vibrational temperatures:     80.40   107.90   129.79   175.51   319.15
          (Kelvin)            332.37   355.80   403.40   452.26   488.06
                              546.48   558.93   704.84   864.49  1082.96
                             1166.38  1201.37  1250.63  1334.39  1386.94
                             1478.33  1539.22  1543.66  1567.90  1615.99
                             1622.75  1677.60  1715.45  1739.87  1791.92
                             1809.62  1882.07  1916.68  1944.24  2003.00
                             2021.84  2049.88  2056.46  2092.99  2140.22
                             2143.01  2151.60  2158.18  2167.30  2174.32
                             2187.84  2216.09  2362.77  4159.42  4180.98
                             4195.09  4198.74  4238.34  4311.90  4374.79
                             4380.51  4436.10  4474.58  4483.87  4512.99
                             5022.76  5099.64  5145.65

 Zero-point correction=                           0.212063 (Hartree/Particle)
 Thermal correction to Energy=                    0.222476
 Thermal correction to Enthalpy=                  0.223420
 Thermal correction to Gibbs Free Energy=         0.176248
 Sum of electronic and zero-point Energies=           -363.611337
 Sum of electronic and thermal Energies=              -363.600923
 Sum of electronic and thermal Enthalpies=            -363.599979
 Sum of electronic and thermal Free Energies=         -363.647152

                     E (Thermal)             CV                S
                      KCal/Mol        Cal/Mol-Kelvin    Cal/Mol-Kelvin
 Total                  139.606             37.087             99.283
 Electronic               0.000              0.000              0.000
 Translational            0.889              2.981             40.189
 Rotational               0.889              2.981             29.054
 Vibrational            137.829             31.125             30.040
 Vibration     1          0.596              1.975              4.598
 Vibration     2          0.599              1.966              4.018
 Vibration     3          0.602              1.956              3.656
 Vibration     4          0.609              1.931              3.069
 Vibration     5          0.648              1.808              1.944
 Vibration     6          0.653              1.794              1.871
 Vibration     7          0.661              1.767              1.750
 Vibration     8          0.680              1.710              1.531
 Vibration     9          0.702              1.646              1.339
 Vibration    10          0.719              1.597              1.216
 Vibration    11          0.750              1.513              1.040
 Vibration    12          0.757              1.495              1.006
 Vibration    13          0.846              1.272              0.684
 Vibration    14          0.959              1.030              0.448

                           ! Non-Optimized Parameters !
 Normal termination of Gaussian 16 at Tue Jun  1 07:17:53 2021.
