 Gaussian 16, Revision A.03,
 Gaussian 16:  ES64L-G16RevA.03 25-Dec-2016

 -----------------------------
 # opt freq b3lyp/6-31g(2df,p)
 -----------------------------

 -------------------
 Title Card Required
 -------------------
 Symbolic Z-matrix:
 Charge =  0 Multiplicity = 1

 SCF Done:  E(RB3LYP) =  -324.442791069     A.U. after   12 cycles
 SCF Done:  E(RB3LYP) =  -324.445879998     A.U. after   10 cycles
 SCF Done:  E(RB3LYP) =  -324.445927266     A.U. after   11 cycles
 SCF Done:  E(RB3LYP) =  -324.446786570     A.U. after   11 cycles
 SCF Done:  E(RB3LYP) =  -324.447096484     A.U. after   10 cycles
 SCF Done:  E(RB3LYP) =  -324.447266098     A.U. after   10 cycles
 SCF Done:  E(RB3LYP) =  -324.447316388     A.U. after    9 cycles
 SCF Done:  E(RB3LYP) =  -324.447332699     A.U. after   10 cycles
 SCF Done:  E(RB3LYP) =  -324.447338910     A.U. after    8 cycles
 SCF Done:  E(RB3LYP) =  -324.447341538     A.U. after    7 cycles
 Optimization completed.
    -- Stationary point found.
 Normal termination of Gaussian 16 at Tue Jun  1 02:07:17 2021.

 ----------------------------------------------------------------------
 #N Geom=AllCheck Guess=TCheck SCRF=Check GenChk RB3LYP/6-31G(2df,p) Fr
 eq
 ----------------------------------------------------------------------

 Structure from the checkpoint file:  "CCNpCpNpCpN.chk"
 -------------------
 Title Card Required
 -------------------
 Charge =  0 Multiplicity = 1

                         Standard orientation:
 ---------------------------------------------------------------------
 Center     Atomic      Atomic             Coordinates (Angstroms)
 Number     Number       Type             X           Y           Z
 ---------------------------------------------------------------------
      1          6           0        2.603092   -0.350808    0.344964
      2          6           0        1.217235   -0.687042   -0.211022
      3          7           0        0.197389    0.288264    0.200069
      4          6           0        0.515913    1.605756   -0.351964
      5          7           0       -1.149528   -0.066278   -0.331039
      6          6           0       -1.452092   -1.483516   -0.131083
      7          7           0       -2.123936    0.650389    0.421408
      8          1           0        3.273326   -1.201227    0.187391
      9          1           0        2.545259   -0.153601    1.419794
     10          1           0        3.056831    0.516244   -0.141288
     11          1           0        0.934697   -1.662437    0.185861
     12          1           0        1.266462   -0.779785   -1.312206
     13          1           0        1.447408    1.967789    0.085847
     14          1           0       -0.262371    2.320793   -0.078876
     15          1           0        0.609053    1.594260   -1.450668
     16          1           0       -0.867324   -2.106216   -0.809767
     17          1           0       -2.507862   -1.607968   -0.368889
     18          1           0       -1.285049   -1.818281    0.907273
     19          1           0       -2.183090    1.591002    0.046625
     20          1           0       -1.799703    0.726454    1.390472
 ---------------------------------------------------------------------

 SCF Done:  E(RB3LYP) =  -324.447341538     A.U. after    1 cycles

 The electronic state is 1-A.
 Alpha  occ. eigenvalues --  -14.36328 -14.33993 -14.32754 -10.20428 -10.19487
 Alpha  occ. eigenvalues --  -10.19236 -10.17705  -0.99240  -0.87704  -0.76955
 Alpha  occ. eigenvalues --   -0.74428  -0.66748  -0.63350  -0.56616  -0.50703
 Alpha  occ. eigenvalues --   -0.49310  -0.46566  -0.46177  -0.41922  -0.41349
 Alpha  occ. eigenvalues --   -0.39291  -0.38724  -0.37561  -0.36084  -0.35622
 Alpha  occ. eigenvalues --   -0.33689  -0.27711  -0.25033  -0.19059
 Alpha virt. eigenvalues --    0.08021   0.10524   0.11788   0.12431   0.13388
 Alpha virt. eigenvalues --    0.14946   0.15873   0.16771   0.17059   0.17548
 Alpha virt. eigenvalues --    0.18326   0.19119   0.19971   0.21349   0.21865

 Mulliken charges:
               1
     1  C   -0.400452
     2  C   -0.096317
     3  N   -0.080550
     4  C   -0.294040
     5  N   -0.086757
     6  C   -0.282609
     7  N   -0.439808
     8  H    0.116259
     9  H    0.125660
    10  H    0.122056
    11  H    0.108235
    12  H    0.083193
    13  H    0.121801
    14  H    0.100845
    15  H    0.099580
    16  H    0.119163
    17  H    0.135676
    18  H    0.096609
    19  H    0.240733
    20  H    0.210724
 Sum of Mulliken charges =  -0.00000

 Dipole moment (field-independent basis, Debye):
    X=              1.2000    Y=              0.2722    Z=              0.2616  Tot=              1.2580
 Quadrupole moment (field-independent basis, Debye-Ang):
   XX=            -47.7004   YY=            -41.1067   ZZ=            -46.4602
   XY=             -1.1084   XZ=             -0.9964   YZ=              0.5222

  Exact polarizability:  80.216  -0.648  71.768  -2.697   0.340  58.718
 Approx polarizability: 102.223  -1.852  98.291  -3.851   0.749  90.435

                      1                      2                      3
                      A                      A                      A
 Frequencies --     49.9145               103.6077               211.3596
 Red. masses --      3.0960                 1.8421                 1.0394
 Frc consts  --      0.0045                 0.0117                 0.0274
 IR Inten    --      0.9208                 0.1570                 0.4571

                      4                      5                      6
                      A                      A                      A
 Frequencies --    229.4365               266.4997               320.8499
 Red. masses --      1.7378                 1.8020                 1.2677
 Frc consts  --      0.0539                 0.0754                 0.0769
 IR Inten    --      0.4533                 0.4395                 7.3278

                      7                      8                      9
                      A                      A                      A
 Frequencies --    345.4981               354.6875               399.1334
 Red. masses --      1.2462                 2.0188                 2.1083
 Frc consts  --      0.0876                 0.1496                 0.1979
 IR Inten    --     15.7317                 5.0399                 4.0112

                     10                     11                     12
                      A                      A                      A
 Frequencies --    436.7114               470.5019               516.7832
 Red. masses --      2.1775                 2.8681                 2.5907
 Frc consts  --      0.2447                 0.3741                 0.4076
 IR Inten    --      3.0748                 0.5619                 8.8663

                     13                     14                     15
                      A                      A                      A
 Frequencies --    538.7496               747.6705               831.2109
 Red. masses --      2.3747                 3.2831                 1.1258
 Frc consts  --      0.4061                 1.0813                 0.4583
 IR Inten    --     14.1690                 7.8280                 1.0392

                     16                     17                     18
                      A                      A                      A
 Frequencies --    883.0537               886.7919               984.7842
 Red. masses --      2.8816                 2.8798                 2.1041
 Frc consts  --      1.3239                 1.3343                 1.2023
 IR Inten    --    102.7395                21.9791                64.0557

                     19                     20                     21
                      A                      A                      A
 Frequencies --   1018.6849              1060.3931              1114.6316
 Red. masses --      2.0031                 2.3741                 1.4272
 Frc consts  --      1.2247                 1.5729                 1.0447
 IR Inten    --      7.0771                 3.5540                 1.6754

                     22                     23                     24
                      A                      A                      A
 Frequencies --   1135.1480              1155.2327              1176.7104
 Red. masses --      1.3503                 1.7496                 1.7040
 Frc consts  --      1.0251                 1.3758                 1.3901
 IR Inten    --      2.2004                22.4565                 5.3788

                     25                     26                     27
                      A                      A                      A
 Frequencies --   1190.0890              1221.3710              1281.3234
 Red. masses --      2.3153                 1.8746                 3.2737
 Frc consts  --      1.9321                 1.6476                 3.1667
 IR Inten    --     27.7900                 5.3719                 5.5565

                     28                     29                     30
                      A                      A                      A
 Frequencies --   1319.5156              1336.3874              1393.6552
 Red. masses --      1.1708                 1.3121                 1.2436
 Frc consts  --      1.2011                 1.3807                 1.4231
 IR Inten    --     10.5790                 6.6869                 0.9337

                     31                     32                     33
                      A                      A                      A
 Frequencies --   1409.8538              1439.6954              1446.9860
 Red. masses --      1.2952                 1.1752                 1.1969
 Frc consts  --      1.5168                 1.4351                 1.4766
 IR Inten    --      5.3609                 0.2403                 1.2111

                     34                     35                     36
                      A                      A                      A
 Frequencies --   1485.5685              1485.8868              1495.9264
 Red. masses --      1.0448                 1.0524                 1.0479
 Frc consts  --      1.3585                 1.3690                 1.3816
 IR Inten    --      8.7913                 5.5506                 7.6996

                     37                     38                     39
                      A                      A                      A
 Frequencies --   1498.6450              1503.4740              1515.0274
 Red. masses --      1.0455                 1.0466                 1.0443
 Frc consts  --      1.3835                 1.3939                 1.4122
 IR Inten    --      5.9854                11.5832                 3.1476

                     40                     41                     42
                      A                      A                      A
 Frequencies --   1520.3877              1669.6624              2928.7921
 Red. masses --      1.0837                 1.0799                 1.0724
 Frc consts  --      1.4759                 1.7738                 5.4199
 IR Inten    --      0.2863                13.8788                59.5832

                     43                     44                     45
                      A                      A                      A
 Frequencies --   2959.3803              2970.5083              3043.3987
 Red. masses --      1.0575                 1.0566                 1.0353
 Frc consts  --      5.4570                 5.4934                 5.6500
 IR Inten    --     72.8639                52.5065                21.0002

                     46                     47                     48
                      A                      A                      A
 Frequencies --   3098.5952              3101.9389              3108.0406
 Red. masses --      1.0826                 1.0813                 1.0838
 Frc consts  --      6.1241                 6.1302                 6.1686
 IR Inten    --      7.9374                34.1034                 5.8917

                     49                     50                     51
                      A                      A                      A
 Frequencies --   3113.7947              3125.2901              3136.3468
 Red. masses --      1.0977                 1.0974                 1.0991
 Frc consts  --      6.2708                 6.3154                 6.3698
 IR Inten    --     32.1033                40.2738                23.6429

                     52                     53                     54
                      A                      A                      A
 Frequencies --   3155.5180              3380.5948              3550.3565
 Red. masses --      1.1012                 1.0559                 1.0834
 Frc consts  --      6.4604                 7.1096                 8.0458
 IR Inten    --     14.7344                15.7283                 0.9662

 - Thermochemistry -
 -------------------
 Temperature   298.150 Kelvin.  Pressure   1.00000 Atm.
 Atom     1 has atomic number  6 and mass  12.00000

 Molecular mass:   103.11095 amu.
 Principal axes and moments of inertia in atomic units:
                           1         2         3
     Eigenvalues --   428.38743 985.893251287.12320
           X            0.99996   0.00836  -0.00238
           Y           -0.00837   0.99995  -0.00470
           Z            0.00234   0.00472   0.99999
 This molecule is an asymmetric top.
 Rotational symmetry number  1.
 Rotational temperatures (Kelvin)      0.20219     0.08785     0.06729
 Rotational constants (GHZ):           4.21287     1.83056     1.40215
 Zero-point vibrational energy     479248.3 (Joules/Mol)
                                  114.54309 (Kcal/Mol)
 Warning -- explicit consideration of  13 degrees of freedom as
           vibrations may cause significant error
 Vibrational temperatures:     71.82   149.07   304.10   330.11   383.43
          (Kelvin)            461.63   497.09   510.32   574.26   628.33
                              676.95   743.54   775.14  1075.73  1195.93
                             1270.52  1275.90  1416.88  1465.66  1525.67
                             1603.71  1633.22  1662.12  1693.02  1712.27
                             1757.28  1843.54  1898.49  1922.76  2005.16
                             2028.47  2071.40  2081.89  2137.40  2137.86
                             2152.30  2156.22  2163.16  2179.79  2187.50
                             2402.27  4213.88  4257.89  4273.90  4378.77
                             4458.19  4463.00  4471.78  4480.06  4496.60
                             4512.50  4540.09  4863.92  5108.17

 Zero-point correction=                           0.182536 (Hartree/Particle)
 Thermal correction to Energy=                    0.191407
 Thermal correction to Enthalpy=                  0.192351
 Thermal correction to Gibbs Free Energy=         0.149487
 Sum of electronic and zero-point Energies=           -324.264806
 Sum of electronic and thermal Energies=              -324.255935
 Sum of electronic and thermal Enthalpies=            -324.254990
 Sum of electronic and thermal Free Energies=         -324.297854

                     E (Thermal)             CV                S
                      KCal/Mol        Cal/Mol-Kelvin    Cal/Mol-Kelvin
 Total                  120.110             32.793             90.214
 Electronic               0.000              0.000              0.000
 Translational            0.889              2.981             39.809
 Rotational               0.889              2.981             27.788
 Vibrational            118.332             26.832             22.617
 Vibration     1          0.595              1.978              4.821
 Vibration     2          0.605              1.946              3.385
 Vibration     3          0.643              1.824              2.032
 Vibration     4          0.652              1.796              1.883
 Vibration     5          0.672              1.735              1.619
 Vibration     6          0.706              1.634              1.306
 Vibration     7          0.724              1.584              1.187
 Vibration     8          0.731              1.566              1.145
 Vibration     9          0.765              1.472              0.966
 Vibration    10          0.797              1.390              0.837
 Vibration    11          0.828              1.315              0.736
 Vibration    12          0.872              1.213              0.617
 Vibration    13          0.894              1.164              0.568

                           ! Non-Optimized Parameters !
 Normal termination of Gaussian 16 at Tue Jun  1 02:28:07 2021.
