 Gaussian 16, Revision A.03,
 Gaussian 16:  ES64L-G16RevA.03 25-Dec-2016

 -----------------------------
 # opt freq b3lyp/6-31g(2df,p)
 -----------------------------

 -------------------
 Title Card Required
 -------------------
 Symbolic Z-matrix:
 Charge =  0 Multiplicity = 1

 SCF Done:  E(RB3LYP) =  -417.888031259     A.U. after   13 cycles
 SCF Done:  E(RB3LYP) =  -417.895796338     A.U. after   12 cycles
 SCF Done:  E(RB3LYP) =  -417.898097189     A.U. after   12 cycles
 SCF Done:  E(RB3LYP) =  -417.900127775     A.U. after   12 cycles
 SCF Done:  E(RB3LYP) =  -417.902440256     A.U. after   14 cycles
 SCF Done:  E(RB3LYP) =  -417.904380952     A.U. after   12 cycles
 SCF Done:  E(RB3LYP) =  -417.906366981     A.U. after   12 cycles
 SCF Done:  E(RB3LYP) =  -417.907370632     A.U. after   11 cycles
 SCF Done:  E(RB3LYP) =  -417.909301249     A.U. after   13 cycles
 SCF Done:  E(RB3LYP) =  -417.910204433     A.U. after   12 cycles
 SCF Done:  E(RB3LYP) =  -417.911121247     A.U. after   12 cycles
 SCF Done:  E(RB3LYP) =  -417.911216943     A.U. after   11 cycles
 SCF Done:  E(RB3LYP) =  -417.911219014     A.U. after   10 cycles
 SCF Done:  E(RB3LYP) =  -417.911243765     A.U. after    9 cycles
 SCF Done:  E(RB3LYP) =  -417.911246275     A.U. after    8 cycles
 SCF Done:  E(RB3LYP) =  -417.911246923     A.U. after    8 cycles
 SCF Done:  E(RB3LYP) =  -417.911247179     A.U. after    7 cycles
 SCF Done:  E(RB3LYP) =  -417.911247278     A.U. after    7 cycles
 SCF Done:  E(RB3LYP) =  -417.911247301     A.U. after    6 cycles
 Optimization completed.
    -- Stationary point found.
 Normal termination of Gaussian 16 at Tue Jun  1 03:51:25 2021.

 ----------------------------------------------------------------------
 #N Geom=AllCheck Guess=TCheck SCRF=Check GenChk RB3LYP/6-31G(2df,p) Fr
 eq
 ----------------------------------------------------------------------

 Structure from the checkpoint file:  "CCNpNpCCdNNC.chk"
 -------------------
 Title Card Required
 -------------------
 Charge =  0 Multiplicity = 1

                         Standard orientation:
 ---------------------------------------------------------------------
 Center     Atomic      Atomic             Coordinates (Angstroms)
 Number     Number       Type             X           Y           Z
 ---------------------------------------------------------------------
      1          6           0       -3.895729    0.334157   -0.421558
      2          6           0       -2.793016   -0.399616    0.334016
      3          7           0       -1.459119   -0.043576   -0.150669
      4          7           0       -1.207871    1.332214    0.146293
      5          6           0       -0.414549   -0.925754    0.378423
      6          6           0        0.884568   -0.725822   -0.343135
      7          7           0        1.935136   -0.355864    0.280347
      8          7           0        3.112899   -0.280676   -0.400527
      9          6           0        4.064190    0.663883    0.159645
     10          1           0       -4.878774    0.044541   -0.036802
     11          1           0       -3.854379    0.093593   -1.488198
     12          1           0       -3.778418    1.413689   -0.309982
     13          1           0       -2.905190   -1.481305    0.199202
     14          1           0       -2.886700   -0.204676    1.420235
     15          1           0       -0.451926    1.638779   -0.458604
     16          1           0       -0.853230    1.417724    1.106295
     17          1           0       -0.754158   -1.960260    0.234727
     18          1           0       -0.245324   -0.776066    1.460655
     19          1           0        0.886599   -0.914810   -1.425914
     20          1           0        3.009223   -0.207836   -1.412315
     21          1           0        4.206775    0.429470    1.216946
     22          1           0        3.745117    1.714394    0.079291
     23          1           0        5.020282    0.546988   -0.357992
 ---------------------------------------------------------------------

 SCF Done:  E(RB3LYP) =  -417.911247301     A.U. after    1 cycles

 The electronic state is 1-A.
 Alpha  occ. eigenvalues --  -14.36001 -14.35537 -14.33864 -14.32837 -10.21014
 Alpha  occ. eigenvalues --  -10.20636 -10.20560 -10.19763 -10.15941  -0.99705
 Alpha  occ. eigenvalues --   -0.96347  -0.83257  -0.79245  -0.74200  -0.68389
 Alpha  occ. eigenvalues --   -0.64535  -0.58836  -0.58117  -0.52048  -0.48905
 Alpha  occ. eigenvalues --   -0.48302  -0.46557  -0.45571  -0.43943  -0.41585
 Alpha  occ. eigenvalues --   -0.39887  -0.39468  -0.38833  -0.35805  -0.35370
 Alpha  occ. eigenvalues --   -0.34420  -0.33357  -0.27199  -0.24885  -0.21805
 Alpha  occ. eigenvalues --   -0.21647
 Alpha virt. eigenvalues --    0.00726   0.08562   0.08969   0.11635   0.12730
 Alpha virt. eigenvalues --    0.13504   0.13790   0.15436   0.16135   0.16926
 Alpha virt. eigenvalues --    0.17132   0.17537   0.18251   0.18742   0.20071

 Mulliken charges:
               1
     1  C   -0.376318
     2  C   -0.079145
     3  N   -0.084810
     4  N   -0.462355
     5  C   -0.192699
     6  C   -0.012548
     7  N   -0.114700
     8  N   -0.217824
     9  C   -0.290161
    10  H    0.102825
    11  H    0.113660
    12  H    0.136320
    13  H    0.093801
    14  H    0.071396
    15  H    0.237740
    16  H    0.212783
    17  H    0.105443
    18  H    0.088941
    19  H    0.075189
    20  H    0.218574
    21  H    0.143905
    22  H    0.107886
    23  H    0.122097
 Sum of Mulliken charges =   0.00000

 Dipole moment (field-independent basis, Debye):
    X=              1.4903    Y=              0.0721    Z=             -0.6925  Tot=              1.6449
 Quadrupole moment (field-independent basis, Debye-Ang):
   XX=            -54.2780   YY=            -57.0564   ZZ=            -54.7825
   XY=              6.3096   XZ=             -4.9332   YZ=              0.7164

  Exact polarizability: 128.476   9.758  74.023  -0.049   1.478  73.989
 Approx polarizability: 154.218  14.168 109.278   3.448   4.085 115.356

                      1                      2                      3
                      A                      A                      A
 Frequencies --     40.2231                55.1893               106.1654
 Red. masses --      3.0765                 3.3691                 1.8463
 Frc consts  --      0.0029                 0.0060                 0.0123
 IR Inten    --      1.1259                 0.9191                 0.8853

                      4                      5                      6
                      A                      A                      A
 Frequencies --    135.7223               163.2970               203.5644
 Red. masses --      1.7390                 2.4577                 1.5962
 Frc consts  --      0.0189                 0.0386                 0.0390
 IR Inten    --      3.6072                15.9812                 1.9659

                      7                      8                      9
                      A                      A                      A
 Frequencies --    213.1634               235.5859               264.1933
 Red. masses --      1.8060                 1.4976                 1.4089
 Frc consts  --      0.0483                 0.0490                 0.0579
 IR Inten    --      8.7987                 5.0090                25.5849

                     10                     11                     12
                      A                      A                      A
 Frequencies --    285.7367               337.1316               365.5437
 Red. masses --      1.8762                 4.2228                 3.1832
 Frc consts  --      0.0903                 0.2828                 0.2506
 IR Inten    --      8.4827                 2.2816                 5.3906

                     13                     14                     15
                      A                      A                      A
 Frequencies --    426.9764               475.2195               544.2278
 Red. masses --      2.3650                 2.4951                 2.9113
 Frc consts  --      0.2540                 0.3320                 0.5080
 IR Inten    --      4.3556                27.4736                 4.6716

                     16                     17                     18
                      A                      A                      A
 Frequencies --    583.0438               699.1462               807.1178
 Red. masses --      2.4432                 1.5554                 1.5809
 Frc consts  --      0.4893                 0.4480                 0.6068
 IR Inten    --      4.3516               114.0287                 8.0670

                     19                     20                     21
                      A                      A                      A
 Frequencies --    822.1867               902.9055               920.8629
 Red. masses --      1.9009                 1.5827                 1.9225
 Frc consts  --      0.7571                 0.7602                 0.9605
 IR Inten    --      5.4008                 1.3406                90.0396

                     22                     23                     24
                      A                      A                      A
 Frequencies --    969.7523               999.4027              1032.2299
 Red. masses --      1.6907                 2.2539                 2.1564
 Frc consts  --      0.9368                 1.3264                 1.3537
 IR Inten    --      2.6473                 8.1142                46.6157

                     25                     26                     27
                      A                      A                      A
 Frequencies --   1076.9266              1098.5647              1135.2660
 Red. masses --      2.3203                 2.0613                 2.0630
 Frc consts  --      1.5855                 1.4657                 1.5665
 IR Inten    --     66.5119                12.8877                29.6631

                     28                     29                     30
                      A                      A                      A
 Frequencies --   1149.5777              1181.1876              1188.7532
 Red. masses --      1.4482                 2.0593                 2.2270
 Frc consts  --      1.1276                 1.6928                 1.8542
 IR Inten    --     22.2787                28.6040                28.6814

                     31                     32                     33
                      A                      A                      A
 Frequencies --   1196.3088              1229.5660              1280.9174
 Red. masses --      2.0642                 1.9956                 1.3845
 Frc consts  --      1.7405                 1.7776                 1.3384
 IR Inten    --     14.3793                35.1246                17.2484

                     34                     35                     36
                      A                      A                      A
 Frequencies --   1297.3213              1343.0734              1359.9011
 Red. masses --      1.1719                 1.3743                 1.2456
 Frc consts  --      1.1621                 1.4606                 1.3572
 IR Inten    --      3.7016                44.5965                16.3425

                     37                     38                     39
                      A                      A                      A
 Frequencies --   1381.5008              1395.2033              1423.7588
 Red. masses --      1.4498                 1.2602                 1.4565
 Frc consts  --      1.6302                 1.4454                 1.7395
 IR Inten    --     11.9064                 3.4924                 9.5102

                     40                     41                     42
                      A                      A                      A
 Frequencies --   1448.1014              1470.3348              1482.0363
 Red. masses --      1.1508                 1.0921                 1.0421
 Frc consts  --      1.4218                 1.3910                 1.3485
 IR Inten    --      1.2939                 3.6658                 4.8812

                     43                     44                     45
                      A                      A                      A
 Frequencies --   1487.7956              1492.6760              1501.0706
 Red. masses --      1.0772                 1.0686                 1.1668
 Frc consts  --      1.4048                 1.4028                 1.5490
 IR Inten    --     19.9206                 2.3647                 1.6536

                     46                     47                     48
                      A                      A                      A
 Frequencies --   1514.9478              1528.4644              1669.9204
 Red. masses --      1.0655                 1.1781                 1.0999
 Frc consts  --      1.4408                 1.6216                 1.8071
 IR Inten    --      2.1093                19.3051                19.2332

                     49                     50                     51
                      A                      A                      A
 Frequencies --   1705.3048              2913.8744              2940.7517
 Red. masses --      7.1748                 1.0724                 1.0675
 Frc consts  --     12.2931                 5.3649                 5.4394
 IR Inten    --     17.9176                58.5532                59.5699

                     52                     53                     54
                      A                      A                      A
 Frequencies --   2985.1175              3015.3123              3031.9265
 Red. masses --      1.0538                 1.0842                 1.0916
 Frc consts  --      5.5325                 5.8077                 5.9121
 IR Inten    --     87.6546                37.0565                27.0537

                     55                     56                     57
                      A                      A                      A
 Frequencies --   3043.0236              3056.7778              3085.1593
 Red. masses --      1.0379                 1.0847                 1.0799
 Frc consts  --      5.6628                 5.9716                 6.0563
 IR Inten    --     27.6285                40.0531                32.8100

                     58                     59                     60
                      A                      A                      A
 Frequencies --   3109.8005              3131.9775              3138.0550
 Red. masses --      1.1016                 1.1026                 1.0999
 Frc consts  --      6.2769                 6.3726                 6.3816
 IR Inten    --     32.4388                13.4131                17.7372

                     61                     62                     63
                      A                      A                      A
 Frequencies --   3343.6624              3436.4264              3536.0824
 Red. masses --      1.0590                 1.0737                 1.0804
 Frc consts  --      6.9760                 7.4703                 7.9591
 IR Inten    --     16.0643                 4.0025                 0.2332

 - Thermochemistry -
 -------------------
 Temperature   298.150 Kelvin.  Pressure   1.00000 Atm.
 Atom     1 has atomic number  6 and mass  12.00000

 Molecular mass:   130.12185 amu.
 Principal axes and moments of inertia in atomic units:
                           1         2         3
     Eigenvalues --   340.112113169.234563333.55447
           X            0.99995   0.01026  -0.00088
           Y           -0.01026   0.99994   0.00246
           Z            0.00090  -0.00245   1.00000
 This molecule is an asymmetric top.
 Rotational symmetry number  1.
 Rotational temperatures (Kelvin)      0.25466     0.02733     0.02598
 Rotational constants (GHZ):           5.30631     0.56946     0.54139
 Zero-point vibrational energy     534700.9 (Joules/Mol)
                                  127.79659 (Kcal/Mol)
 Warning -- explicit consideration of  16 degrees of freedom as
           vibrations may cause significant error
 Vibrational temperatures:     57.87    79.41   152.75   195.27   234.95
          (Kelvin)            292.88   306.69   338.96   380.12   411.11
                              485.06   525.94   614.32   683.73   783.02
                              838.87  1005.92  1161.26  1182.94  1299.08
                             1324.92  1395.26  1437.92  1485.15  1549.46
                             1580.59  1633.39  1653.99  1699.47  1710.35
                             1721.22  1769.07  1842.95  1866.56  1932.38
                             1956.59  1987.67  2007.39  2048.47  2083.49
                             2115.48  2132.32  2140.61  2147.63  2159.71
                             2179.67  2199.12  2402.64  2453.55  4192.42
                             4231.09  4294.92  4338.36  4362.27  4378.23
                             4398.02  4438.86  4474.31  4506.22  4514.96
                             4810.78  4944.25  5087.63

 Zero-point correction=                           0.203657 (Hartree/Particle)
 Thermal correction to Energy=                    0.215046
 Thermal correction to Enthalpy=                  0.215990
 Thermal correction to Gibbs Free Energy=         0.166243
 Sum of electronic and zero-point Energies=           -417.707590
 Sum of electronic and thermal Energies=              -417.696201
 Sum of electronic and thermal Enthalpies=            -417.695257
 Sum of electronic and thermal Free Energies=         -417.745004

                     E (Thermal)             CV                S
                      KCal/Mol        Cal/Mol-Kelvin    Cal/Mol-Kelvin
 Total                  134.943             40.286            104.702
 Electronic               0.000              0.000              0.000
 Translational            0.889              2.981             40.503
 Rotational               0.889              2.981             29.664
 Vibrational            133.166             34.324             34.534
 Vibration     1          0.594              1.981              5.248
 Vibration     2          0.596              1.975              4.622
 Vibration     3          0.605              1.944              3.338
 Vibration     4          0.614              1.918              2.863
 Vibration     5          0.623              1.887              2.511
 Vibration     6          0.639              1.835              2.101
 Vibration     7          0.644              1.821              2.016
 Vibration     8          0.655              1.786              1.836
 Vibration     9          0.671              1.739              1.634
 Vibration    10          0.684              1.700              1.499
 Vibration    11          0.718              1.601              1.226
 Vibration    12          0.739              1.543              1.098
 Vibration    13          0.789              1.412              0.869
 Vibration    14          0.832              1.305              0.723
 Vibration    15          0.899              1.152              0.556
 Vibration    16          0.940              1.068              0.480

 Optimization completed.
    -- Stationary point found.
 Normal termination of Gaussian 16 at Tue Jun  1 04:20:49 2021.
