 Gaussian 16, Revision A.03,
 Gaussian 16:  ES64L-G16RevA.03 25-Dec-2016

 -----------------------------
 # opt freq b3lyp/6-31g(2df,p)
 -----------------------------

 -------------------
 Title Card Required
 -------------------
 Symbolic Z-matrix:
 Charge =  0 Multiplicity = 1

 SCF Done:  E(RB3LYP) =  -361.334330258     A.U. after   13 cycles
 SCF Done:  E(RB3LYP) =  -361.360291745     A.U. after   12 cycles
 SCF Done:  E(RB3LYP) =  -361.362173897     A.U. after   12 cycles
 SCF Done:  E(RB3LYP) =  -361.363343719     A.U. after   12 cycles
 SCF Done:  E(RB3LYP) =  -361.364277439     A.U. after   12 cycles
 SCF Done:  E(RB3LYP) =  -361.365886870     A.U. after   14 cycles
 SCF Done:  E(RB3LYP) =  -361.367338660     A.U. after   11 cycles
 SCF Done:  E(RB3LYP) =  -361.367283198     A.U. after   12 cycles
 SCF Done:  E(RB3LYP) =  -361.368712958     A.U. after   12 cycles
 SCF Done:  E(RB3LYP) =  -361.368659796     A.U. after   12 cycles
 SCF Done:  E(RB3LYP) =  -361.369268085     A.U. after   10 cycles
 SCF Done:  E(RB3LYP) =  -361.369303613     A.U. after    9 cycles
 SCF Done:  E(RB3LYP) =  -361.369309137     A.U. after    9 cycles
 SCF Done:  E(RB3LYP) =  -361.369310834     A.U. after    8 cycles
 SCF Done:  E(RB3LYP) =  -361.369311004     A.U. after    6 cycles
 Optimization completed.
    -- Stationary point found.
 Normal termination of Gaussian 16 at Mon May 31 19:31:28 2021.

 ----------------------------------------------------------------------
 #N Geom=AllCheck Guess=TCheck SCRF=Check GenChk RB3LYP/6-31G(2df,p) Fr
 eq
 ----------------------------------------------------------------------

 Structure from the checkpoint file:  "CCNpCpNCCtN.chk"
 -------------------
 Title Card Required
 -------------------
 Charge =  0 Multiplicity = 1

                         Standard orientation:
 ---------------------------------------------------------------------
 Center     Atomic      Atomic             Coordinates (Angstroms)
 Number     Number       Type             X           Y           Z
 ---------------------------------------------------------------------
      1          6           0        2.878461   -1.070915    0.147799
      2          6           0        1.528994   -0.720357   -0.477687
      3          7           0        0.838985    0.378954    0.206175
      4          6           0        1.505883    1.666285    0.047440
      5          7           0       -0.512615    0.514020   -0.224829
      6          6           0       -1.390306   -0.336993    0.575160
      7          6           0       -2.769652   -0.244516    0.089742
      8          7           0       -3.853896   -0.189710   -0.304344
      9          1           0        3.284029   -1.971472   -0.322805
     10          1           0        2.765193   -1.260721    1.219060
     11          1           0        3.614038   -0.272897    0.016580
     12          1           0        0.876766   -1.598614   -0.420234
     13          1           0        1.660965   -0.489786   -1.553610
     14          1           0        2.496455    1.629277    0.507390
     15          1           0        0.913257    2.431409    0.550342
     16          1           0        1.625448    1.957829   -1.011668
     17          1           0       -0.607386    0.283274   -1.216569
     18          1           0       -1.349021    0.011048    1.612153
     19          1           0       -1.107334   -1.403216    0.585615
 ---------------------------------------------------------------------

 SCF Done:  E(RB3LYP) =  -361.369311004     A.U. after    1 cycles

 The electronic state is 1-A.
 Alpha  occ. eigenvalues --  -14.36113 -14.35901 -14.33091 -10.25769 -10.22210
 Alpha  occ. eigenvalues --  -10.22125 -10.20592 -10.18804  -0.99565  -0.90420
 Alpha  occ. eigenvalues --   -0.84765  -0.76238  -0.72001  -0.66746  -0.60400
 Alpha  occ. eigenvalues --   -0.54433  -0.50533  -0.49488  -0.47474  -0.44726
 Alpha  occ. eigenvalues --   -0.43863  -0.41318  -0.40180  -0.38239  -0.37643
 Alpha  occ. eigenvalues --   -0.35837  -0.35542  -0.33246  -0.32778  -0.25498
 Alpha  occ. eigenvalues --   -0.23965
 Alpha virt. eigenvalues --    0.02208   0.03848   0.07216   0.09283   0.10050
 Alpha virt. eigenvalues --    0.12984   0.13679   0.14739   0.15079   0.15691
 Alpha virt. eigenvalues --    0.16492   0.17761   0.18274   0.19685   0.19900

 Mulliken charges:
               1
     1  C   -0.393634
     2  C   -0.111940
     3  N   -0.057085
     4  C   -0.300757
     5  N   -0.278650
     6  C   -0.230481
     7  C    0.243552
     8  N   -0.298178
     9  H    0.121462
    10  H    0.129132
    11  H    0.126193
    12  H    0.103089
    13  H    0.081496
    14  H    0.122641
    15  H    0.133781
    16  H    0.094750
    17  H    0.218064
    18  H    0.164196
    19  H    0.132368
 Sum of Mulliken charges =  -0.00000

 Dipole moment (field-independent basis, Debye):
    X=              4.2651    Y=             -0.8819    Z=              0.2727  Tot=              4.3638
 Quadrupole moment (field-independent basis, Debye-Ang):
   XX=            -66.1069   YY=            -48.2846   ZZ=            -47.9512
   XY=              0.6722   XZ=             -3.8067   YZ=              0.0861

  Exact polarizability:  96.787   0.421  65.655   3.169  -0.368  61.121
 Approx polarizability: 126.774   0.341  91.564   9.377  -0.844  94.792

                      1                      2                      3
                      A                      A                      A
 Frequencies --     50.7862                76.1929               126.8862
 Red. masses --      4.2567                 2.2863                 2.6611
 Frc consts  --      0.0065                 0.0078                 0.0252
 IR Inten    --      4.9649                 1.4386                 1.9581

                      4                      5                      6
                      A                      A                      A
 Frequencies --    144.6887               215.9113               226.9368
 Red. masses --      2.6817                 1.0723                 1.8433
 Frc consts  --      0.0331                 0.0295                 0.0559
 IR Inten    --      4.6662                 0.0594                 2.7503

                      7                      8                      9
                      A                      A                      A
 Frequencies --    289.3208               305.9604               383.8765
 Red. masses --      2.7518                 1.7555                 3.2026
 Frc consts  --      0.1357                 0.0968                 0.2781
 IR Inten    --      2.0599                 1.2291                 2.4703

                     10                     11                     12
                      A                      A                      A
 Frequencies --    419.0835               425.1953               482.4593
 Red. masses --      2.6805                 3.6576                 3.7541
 Frc consts  --      0.2774                 0.3896                 0.5148
 IR Inten    --      5.1098                 5.0101                 4.3240

                     13                     14                     15
                      A                      A                      A
 Frequencies --    571.4447               772.4067               813.2588
 Red. masses --      4.2869                 2.2207                 1.1441
 Frc consts  --      0.8248                 0.7806                 0.4458
 IR Inten    --      0.1657                29.3427                 7.3868

                     16                     17                     18
                      A                      A                      A
 Frequencies --    853.4074               946.2414               983.7140
 Red. masses --      1.8863                 3.1509                 2.0187
 Frc consts  --      0.8094                 1.6622                 1.1510
 IR Inten    --     40.9797                 6.0037                 7.0903

                     19                     20                     21
                      A                      A                      A
 Frequencies --   1006.8433              1059.8355              1083.6960
 Red. masses --      2.1131                 2.2582                 1.9499
 Frc consts  --      1.2621                 1.4945                 1.3492
 IR Inten    --     17.2964                16.4553                 7.5615

                     22                     23                     24
                      A                      A                      A
 Frequencies --   1116.7391              1120.2533              1167.9766
 Red. masses --      2.8431                 1.5531                 1.5908
 Frc consts  --      2.0890                 1.1484                 1.2786
 IR Inten    --      7.8286                 4.9015                 8.0270

                     25                     26                     27
                      A                      A                      A
 Frequencies --   1229.2420              1244.0916              1254.9047
 Red. masses --      1.9596                 2.0884                 1.5480
 Frc consts  --      1.7446                 1.9044                 1.4363
 IR Inten    --      4.6873                 2.9306                 1.9649

                     28                     29                     30
                      A                      A                      A
 Frequencies --   1330.1181              1361.4817              1393.2417
 Red. masses --      1.2124                 1.3745                 1.2738
 Frc consts  --      1.2638                 1.5011                 1.4568
 IR Inten    --     12.7291                17.9789                 4.1519

                     31                     32                     33
                      A                      A                      A
 Frequencies --   1411.1434              1446.0790              1481.0880
 Red. masses --      1.2971                 1.1607                 1.0654
 Frc consts  --      1.5219                 1.4301                 1.3770
 IR Inten    --     10.6766                 1.0812                 6.3287

                     34                     35                     36
                      A                      A                      A
 Frequencies --   1484.5320              1490.4489              1496.2450
 Red. masses --      1.0827                 1.0665                 1.0536
 Frc consts  --      1.4058                 1.3958                 1.3897
 IR Inten    --      0.8834                 2.6004                 7.3085

                     37                     38                     39
                      A                      A                      A
 Frequencies --   1502.0163              1507.7350              1522.7513
 Red. masses --      1.0504                 1.0827                 1.1467
 Frc consts  --      1.3962                 1.4501                 1.5666
 IR Inten    --      2.3930                 3.9706                13.1001

                     40                     41                     42
                      A                      A                      A
 Frequencies --   2368.6840              2909.7083              2948.3701
 Red. masses --     12.6251                 1.0725                 1.0594
 Frc consts  --     41.7349                 5.3497                 5.4259
 IR Inten    --      3.5813                58.3211                76.5505

                     43                     44                     45
                      A                      A                      A
 Frequencies --   2963.7188              3045.4024              3055.7065
 Red. masses --      1.0714                 1.0352                 1.0868
 Frc consts  --      5.5449                 5.6565                 5.9791
 IR Inten    --     29.4387                17.5831                22.5914

                     46                     47                     48
                      A                      A                      A
 Frequencies --   3077.8628              3090.3862              3116.0656
 Red. masses --      1.0863                 1.0739                 1.1006
 Frc consts  --      6.0631                 6.0426                 6.2962
 IR Inten    --      4.7359                25.4054                28.8463

                     49                     50                     51
                      A                      A                      A
 Frequencies --   3122.4762              3143.2894              3397.6048
 Red. masses --      1.1020                 1.1022                 1.0738
 Frc consts  --      6.3303                 6.4162                 7.3030
 IR Inten    --     25.7571                15.6509                 6.9819

 - Thermochemistry -
 -------------------
 Temperature   298.150 Kelvin.  Pressure   1.00000 Atm.
 Atom     1 has atomic number  6 and mass  12.00000

 Molecular mass:   113.09530 amu.
 Principal axes and moments of inertia in atomic units:
                           1         2         3
     Eigenvalues --   373.200081993.353912224.10306
           X            0.99997  -0.00531  -0.00484
           Y            0.00528   0.99996  -0.00652
           Z            0.00488   0.00650   0.99997
 This molecule is an asymmetric top.
 Rotational symmetry number  1.
 Rotational temperatures (Kelvin)      0.23208     0.04345     0.03894
 Rotational constants (GHZ):           4.83585     0.90538     0.81145
 Zero-point vibrational energy     430880.0 (Joules/Mol)
                                  102.98279 (Kcal/Mol)
 Warning -- explicit consideration of  13 degrees of freedom as
           vibrations may cause significant error
 Vibrational temperatures:     73.07   109.62   182.56   208.17   310.65
          (Kelvin)            326.51   416.27   440.21   552.31   602.97
                              611.76   694.15   822.18  1111.32  1170.10
                             1227.86  1361.43  1415.35  1448.62  1524.87
                             1559.20  1606.74  1611.79  1680.46  1768.61
                             1789.97  1805.53  1913.74  1958.87  2004.56
                             2030.32  2080.59  2130.96  2135.91  2144.42
                             2152.76  2161.07  2169.29  2190.90  3408.01
                             4186.42  4242.05  4264.13  4381.65  4396.48
                             4428.36  4446.38  4483.32  4492.55  4522.49
                             4888.40

 Zero-point correction=                           0.164114 (Hartree/Particle)
 Thermal correction to Energy=                    0.173700
 Thermal correction to Enthalpy=                  0.174644
 Thermal correction to Gibbs Free Energy=         0.129159
 Sum of electronic and zero-point Energies=           -361.205197
 Sum of electronic and thermal Energies=              -361.195611
 Sum of electronic and thermal Enthalpies=            -361.194667
 Sum of electronic and thermal Free Energies=         -361.240152

                     E (Thermal)             CV                S
                      KCal/Mol        Cal/Mol-Kelvin    Cal/Mol-Kelvin
 Total                  108.998             33.531             95.731
 Electronic               0.000              0.000              0.000
 Translational            0.889              2.981             40.085
 Rotational               0.889              2.981             28.894
 Vibrational            107.221             27.569             26.752
 Vibration     1          0.595              1.977              4.787
 Vibration     2          0.599              1.965              3.987
 Vibration     3          0.611              1.926              2.993
 Vibration     4          0.616              1.908              2.741
 Vibration     5          0.645              1.817              1.993
 Vibration     6          0.651              1.800              1.903
 Vibration     7          0.686              1.694              1.478
 Vibration     8          0.696              1.662              1.384
 Vibration     9          0.753              1.505              1.024
 Vibration    10          0.782              1.429              0.895
 Vibration    11          0.787              1.415              0.874
 Vibration    12          0.839              1.289              0.703
 Vibration    13          0.928              1.093              0.501

                           ! Non-Optimized Parameters !
 Normal termination of Gaussian 16 at Mon May 31 19:52:23 2021.
