 Gaussian 16, Revision A.03,
 Gaussian 16:  ES64L-G16RevA.03 25-Dec-2016

 -----------------------------
 # opt freq b3lyp/6-31g(2df,p)
 -----------------------------

 -------------------
 Title Card Required
 -------------------
 Symbolic Z-matrix:
 Charge =  0 Multiplicity = 1

 SCF Done:  E(RB3LYP) =  -433.939595545     A.U. after   14 cycles
 SCF Done:  E(RB3LYP) =  -433.947781170     A.U. after   14 cycles
 SCF Done:  E(RB3LYP) =  -433.953595063     A.U. after   13 cycles
 SCF Done:  E(RB3LYP) =  -433.956319625     A.U. after   13 cycles
 SCF Done:  E(RB3LYP) =  -433.958437610     A.U. after   13 cycles
 SCF Done:  E(RB3LYP) =  -433.959544366     A.U. after   13 cycles
 SCF Done:  E(RB3LYP) =  -433.960162839     A.U. after   12 cycles
 SCF Done:  E(RB3LYP) =  -433.960514231     A.U. after   13 cycles
 SCF Done:  E(RB3LYP) =  -433.960573955     A.U. after   12 cycles
 SCF Done:  E(RB3LYP) =  -433.960677246     A.U. after   11 cycles
 SCF Done:  E(RB3LYP) =  -433.963198447     A.U. after   11 cycles
 SCF Done:  E(RB3LYP) =  -433.961186485     A.U. after   13 cycles
 SCF Done:  E(RB3LYP) =  -433.963817522     A.U. after   11 cycles
 SCF Done:  E(RB3LYP) =  -433.963861565     A.U. after   10 cycles
 SCF Done:  E(RB3LYP) =  -433.963879890     A.U. after    9 cycles
 SCF Done:  E(RB3LYP) =  -433.963886430     A.U. after    9 cycles
 SCF Done:  E(RB3LYP) =  -433.963888457     A.U. after    8 cycles
 SCF Done:  E(RB3LYP) =  -433.963888820     A.U. after    8 cycles
 SCF Done:  E(RB3LYP) =  -433.963888907     A.U. after    7 cycles
 Optimization completed.
    -- Stationary point found.
 Normal termination of Gaussian 16 at Mon May 31 20:31:00 2021.

 ----------------------------------------------------------------------
 #N Geom=AllCheck Guess=TCheck SCRF=Check GenChk RB3LYP/6-31G(2df,p) Fr
 eq
 ----------------------------------------------------------------------

 Structure from the checkpoint file:  "CCNpCNpCNNdN.chk"
 -------------------
 Title Card Required
 -------------------
 Charge =  0 Multiplicity = 1

                         Standard orientation:
 ---------------------------------------------------------------------
 Center     Atomic      Atomic             Coordinates (Angstroms)
 Number     Number       Type             X           Y           Z
 ---------------------------------------------------------------------
      1          6           0       -2.608589   -1.480664   -0.595524
      2          6           0       -2.116141   -0.377915    0.341736
      3          7           0       -0.726386    0.015970    0.081549
      4          6           0       -0.443500    1.395835    0.455331
      5          7           0       -1.165081    2.300908   -0.432639
      6          6           0        0.255675   -0.919874    0.606994
      7          7           0        1.489807   -0.928019   -0.146821
      8          7           0        2.518242   -0.201321    0.298640
      9          7           0        3.408734   -0.005866   -0.565887
     10          1           0       -3.659741   -1.708161   -0.391062
     11          1           0       -2.046479   -2.413439   -0.480303
     12          1           0       -2.518582   -1.160417   -1.637427
     13          1           0       -2.258201   -0.682637    1.395283
     14          1           0       -2.720026    0.518122    0.183137
     15          1           0        0.648287    1.519459    0.432151
     16          1           0       -0.769896    1.618885    1.489004
     17          1           0       -0.758204    2.257103   -1.362246
     18          1           0       -1.070654    3.256749   -0.104743
     19          1           0       -0.180053   -1.921459    0.567644
     20          1           0        0.543913   -0.720346    1.651192
     21          1           0        1.444602   -1.060714   -1.155691
     22          1           0        4.143164    0.520857   -0.082054
 ---------------------------------------------------------------------

 SCF Done:  E(RB3LYP) =  -433.963888907     A.U. after    1 cycles

 The electronic state is 1-A.
 Alpha  occ. eigenvalues --  -14.40481 -14.36804 -14.33383 -14.32095 -14.31073
 Alpha  occ. eigenvalues --  -10.24369 -10.22885 -10.20157 -10.17368  -1.05793
 Alpha  occ. eigenvalues --   -0.94290  -0.89145  -0.85544  -0.74644  -0.70559
 Alpha  occ. eigenvalues --   -0.64042  -0.62855  -0.58564  -0.53374  -0.49568
 Alpha  occ. eigenvalues --   -0.49231  -0.46940  -0.45955  -0.43224  -0.42351
 Alpha  occ. eigenvalues --   -0.41347  -0.39507  -0.38640  -0.38389  -0.36350
 Alpha  occ. eigenvalues --   -0.35802  -0.33899  -0.24787  -0.24158  -0.23605
 Alpha  occ. eigenvalues --   -0.22030
 Alpha virt. eigenvalues --   -0.00894   0.08673   0.09309   0.10414   0.11750
 Alpha virt. eigenvalues --    0.13326   0.14176   0.14568   0.15417   0.16520
 Alpha virt. eigenvalues --    0.16857   0.17649   0.19094   0.19449   0.21047

 Mulliken charges:
               1
     1  C   -0.384603
     2  C   -0.124625
     3  N   -0.062317
     4  C   -0.122407
     5  N   -0.500743
     6  C   -0.113570
     7  N   -0.158293
     8  N   -0.053043
     9  N   -0.371407
    10  H    0.114099
    11  H    0.112516
    12  H    0.123274
    13  H    0.076110
    14  H    0.130426
    15  H    0.107152
    16  H    0.082062
    17  H    0.228029
    18  H    0.227402
    19  H    0.112412
    20  H    0.110232
    21  H    0.228016
    22  H    0.239277
 Sum of Mulliken charges =  -0.00000

 Dipole moment (field-independent basis, Debye):
    X=             -0.9570    Y=              0.6320    Z=              0.5474  Tot=              1.2708
 Quadrupole moment (field-independent basis, Debye-Ang):
   XX=            -61.1237   YY=            -50.6092   ZZ=            -55.9088
   XY=              3.9791   XZ=              1.0413   YZ=             -0.0027

  Exact polarizability: 106.974   9.874  79.595  -3.225   0.397  70.012
 Approx polarizability: 141.380  16.416 111.017  -8.055  -0.943 108.519

                      1                      2                      3
                      A                      A                      A
 Frequencies --     51.0746                66.0059                89.4540
 Red. masses --      3.6346                 4.5087                 2.0024
 Frc consts  --      0.0056                 0.0116                 0.0094
 IR Inten    --      0.5156                 0.9743                 0.3275

                      4                      5                      6
                      A                      A                      A
 Frequencies --    115.5858               169.9185               204.6716
 Red. masses --      2.9134                 3.3135                 1.3259
 Frc consts  --      0.0229                 0.0564                 0.0327
 IR Inten    --      2.4938                 6.3446                 1.6361

                      7                      8                      9
                      A                      A                      A
 Frequencies --    237.1183               267.4050               280.6822
 Red. masses --      1.8659                 1.9493                 2.0463
 Frc consts  --      0.0618                 0.0821                 0.0950
 IR Inten    --     23.6210                 9.8135                 6.7744

                     10                     11                     12
                      A                      A                      A
 Frequencies --    308.4903               373.6528               410.1932
 Red. masses --      1.9816                 2.3156                 3.5984
 Frc consts  --      0.1111                 0.1905                 0.3567
 IR Inten    --      5.0697                 2.8567                 4.1981

                     13                     14                     15
                      A                      A                      A
 Frequencies --    463.0663               549.5374               644.0787
 Red. masses --      2.8639                 3.2667                 1.3839
 Frc consts  --      0.3618                 0.5812                 0.3382
 IR Inten    --      5.0252                 9.9393               113.8770

                     16                     17                     18
                      A                      A                      A
 Frequencies --    665.5073               795.8772               809.6037
 Red. masses --      3.2606                 2.0663                 1.2525
 Frc consts  --      0.8509                 0.7711                 0.4837
 IR Inten    --     52.4448                12.3545                19.0181

                     19                     20                     21
                      A                      A                      A
 Frequencies --    864.6672               923.6486               929.3331
 Red. masses --      1.3818                 1.2395                 1.8030
 Frc consts  --      0.6087                 0.6230                 0.9174
 IR Inten    --     96.9102                27.4413                26.5717

                     22                     23                     24
                      A                      A                      A
 Frequencies --    992.8094              1035.1046              1053.5865
 Red. masses --      2.1185                 1.5926                 2.9687
 Frc consts  --      1.2303                 1.0054                 1.9416
 IR Inten    --     14.0176                11.4852                27.8082

                     25                     26                     27
                      A                      A                      A
 Frequencies --   1087.5572              1112.2689              1140.0069
 Red. masses --      2.3801                 2.1774                 2.0852
 Frc consts  --      1.6586                 1.5871                 1.5967
 IR Inten    --     18.6505                32.8039                28.1364

                     28                     29                     30
                      A                      A                      A
 Frequencies --   1174.5051              1206.1631              1232.2313
 Red. masses --      2.7449                 1.9141                 2.3642
 Frc consts  --      2.2309                 1.6407                 2.1150
 IR Inten    --    122.6672                71.4782               158.5201

                     31                     32                     33
                      A                      A                      A
 Frequencies --   1259.8322              1316.1905              1332.3873
 Red. masses --      1.6749                 1.2042                 1.1774
 Frc consts  --      1.5663                 1.2291                 1.2315
 IR Inten    --      3.0270                18.4987                25.4145

                     34                     35                     36
                      A                      A                      A
 Frequencies --   1358.7594              1401.8998              1420.1097
 Red. masses --      1.2674                 1.2462                 1.3511
 Frc consts  --      1.3787                 1.4431                 1.6054
 IR Inten    --      9.0646                 1.2677                20.1524

                     37                     38                     39
                      A                      A                      A
 Frequencies --   1427.3127              1455.7375              1472.9887
 Red. masses --      1.2626                 1.3369                 1.3998
 Frc consts  --      1.5155                 1.6692                 1.7894
 IR Inten    --     14.1231                29.3872                 4.6028

                     40                     41                     42
                      A                      A                      A
 Frequencies --   1485.7641              1493.4384              1500.1696
 Red. masses --      1.2268                 1.0940                 1.1114
 Frc consts  --      1.5956                 1.4377                 1.4737
 IR Inten    --      0.5638                 1.2545                10.7639

                     43                     44                     45
                      A                      A                      A
 Frequencies --   1500.7253              1509.8378              1523.9630
 Red. masses --      1.2931                 1.0960                 1.0990
 Frc consts  --      1.7159                 1.4720                 1.5038
 IR Inten    --     17.0160                 6.7072                 0.9776

                     46                     47                     48
                      A                      A                      A
 Frequencies --   1575.5528              1642.1799              2921.5630
 Red. masses --      5.0439                 1.0989                 1.0709
 Frc consts  --      7.3771                 1.7461                 5.3856
 IR Inten    --    180.6090                29.8393                43.3690

                     49                     50                     51
                      A                      A                      A
 Frequencies --   2931.0428              2987.6608              3012.4207
 Red. masses --      1.0727                 1.0697                 1.0883
 Frc consts  --      5.4295                 5.6255                 5.8187
 IR Inten    --    102.6419                46.5783                43.0935

                     52                     53                     54
                      A                      A                      A
 Frequencies --   3036.2045              3087.4933              3092.2603
 Red. masses --      1.0359                 1.0941                 1.0921
 Frc consts  --      5.6264                 6.1449                 6.1528
 IR Inten    --     19.4123                26.0358                11.4729

                     55                     56                     57
                      A                      A                      A
 Frequencies --   3110.1647              3117.5628              3390.9201
 Red. masses --      1.0942                 1.1011                 1.0746
 Frc consts  --      6.2363                 6.3054                 7.2799
 IR Inten    --     31.1993                26.2594                 0.5401

                     58                     59                     60
                      A                      A                      A
 Frequencies --   3478.9994              3495.1946              3581.7050
 Red. masses --      1.0739                 1.0491                 1.0927
 Frc consts  --      7.6585                 7.5513                 8.2591
 IR Inten    --      2.4387                 0.1574                 0.6292

 - Thermochemistry -
 -------------------
 Temperature   298.150 Kelvin.  Pressure   1.00000 Atm.
 Atom     1 has atomic number  6 and mass  12.00000

 Molecular mass:   131.11710 amu.
 Principal axes and moments of inertia in atomic units:
                           1         2         3
     Eigenvalues --   787.505401933.613982470.38950
           X            0.99957   0.02895   0.00424
           Y           -0.02899   0.99953   0.00966
           Z           -0.00396  -0.00978   0.99994
 This molecule is an asymmetric top.
 Rotational symmetry number  1.
 Warning -- assumption of classical behavior for rotation
           may cause significant error
 Rotational temperatures (Kelvin)      0.10999     0.04479     0.03506
 Rotational constants (GHZ):           2.29172     0.93335     0.73055
 Zero-point vibrational energy     509452.7 (Joules/Mol)
                                  121.76212 (Kcal/Mol)
 Warning -- explicit consideration of  14 degrees of freedom as
           vibrations may cause significant error
 Vibrational temperatures:     73.48    94.97   128.70   166.30   244.47
          (Kelvin)            294.48   341.16   384.74   403.84   443.85
                              537.60   590.18   666.25   790.66   926.69
                              957.52  1145.09  1164.84  1244.06  1328.92
                             1337.10  1428.43  1489.28  1515.88  1564.75
                             1600.31  1640.22  1689.85  1735.40  1772.91
                             1812.62  1893.70  1917.01  1954.95  2017.02
                             2043.22  2053.58  2094.48  2119.30  2137.68
                             2148.72  2158.41  2159.21  2172.32  2192.64
                             2266.87  2362.73  4203.48  4217.12  4298.58
                             4334.20  4368.42  4442.21  4449.07  4474.83
                             4485.48  4878.78  5005.50  5028.81  5153.27

 Zero-point correction=                           0.194040 (Hartree/Particle)
 Thermal correction to Energy=                    0.204941
 Thermal correction to Enthalpy=                  0.205885
 Thermal correction to Gibbs Free Energy=         0.157111
 Sum of electronic and zero-point Energies=           -433.769849
 Sum of electronic and thermal Energies=              -433.758948
 Sum of electronic and thermal Enthalpies=            -433.758004
 Sum of electronic and thermal Free Energies=         -433.806778

                     E (Thermal)             CV                S
                      KCal/Mol        Cal/Mol-Kelvin    Cal/Mol-Kelvin
 Total                  128.602             38.503            102.653
 Electronic               0.000              0.000              0.000
 Translational            0.889              2.981             40.526
 Rotational               0.889              2.981             29.710
 Vibrational            126.825             32.541             32.417
 Vibration     1          0.595              1.977              4.775
 Vibration     2          0.597              1.970              4.269
 Vibration     3          0.602              1.957              3.672
 Vibration     4          0.608              1.936              3.173
 Vibration     5          0.625              1.880              2.436
 Vibration     6          0.640              1.833              2.091
 Vibration     7          0.656              1.784              1.824
 Vibration     8          0.673              1.733              1.613
 Vibration     9          0.680              1.709              1.530
 Vibration    10          0.698              1.658              1.370
 Vibration    11          0.745              1.526              1.065
 Vibration    12          0.774              1.448              0.926
 Vibration    13          0.821              1.332              0.757
 Vibration    14          0.905              1.141              0.545

 Optimization completed.
    -- Stationary point found.
 Normal termination of Gaussian 16 at Mon May 31 21:09:58 2021.
