 Gaussian 16, Revision A.03,
 Gaussian 16:  ES64L-G16RevA.03 25-Dec-2016

 -----------------------------
 # opt freq b3lyp/6-31g(2df,p)
 -----------------------------

 -------------------
 Title Card Required
 -------------------
 Symbolic Z-matrix:
 Charge =  0 Multiplicity = 1

 SCF Done:  E(RB3LYP) =  -415.486476748     A.U. after   15 cycles
 SCF Done:  E(RB3LYP) =  -415.521043190     A.U. after   13 cycles
 SCF Done:  E(RB3LYP) =  -415.519932024     A.U. after   13 cycles
 SCF Done:  E(RB3LYP) =  -415.527154582     A.U. after   13 cycles
 SCF Done:  E(RB3LYP) =  -415.528541935     A.U. after   12 cycles
 SCF Done:  E(RB3LYP) =  -415.529629825     A.U. after   14 cycles
 SCF Done:  E(RB3LYP) =  -415.530075830     A.U. after   12 cycles
 SCF Done:  E(RB3LYP) =  -415.530251281     A.U. after   11 cycles
 SCF Done:  E(RB3LYP) =  -415.530372295     A.U. after   12 cycles
 SCF Done:  E(RB3LYP) =  -415.530466439     A.U. after   11 cycles
 SCF Done:  E(RB3LYP) =  -415.541165124     A.U. after   10 cycles
 SCF Done:  E(RB3LYP) =  -415.541209127     A.U. after   11 cycles
 SCF Done:  E(RB3LYP) =  -415.541242150     A.U. after   11 cycles
 SCF Done:  E(RB3LYP) =  -415.541253242     A.U. after   10 cycles
 SCF Done:  E(RB3LYP) =  -415.541262087     A.U. after    9 cycles
 SCF Done:  E(RB3LYP) =  -415.541271454     A.U. after    9 cycles
 SCF Done:  E(RB3LYP) =  -415.541278082     A.U. after    9 cycles
 SCF Done:  E(RB3LYP) =  -415.541278809     A.U. after    8 cycles
 SCF Done:  E(RB3LYP) =  -415.541279001     A.U. after    7 cycles
 Optimization completed.
    -- Stationary point found.
 Normal termination of Gaussian 16 at Mon May 31 19:11:05 2021.

 ----------------------------------------------------------------------
 #N Geom=AllCheck Guess=TCheck SCRF=Check GenChk RB3LYP/6-31G(2df,p) Fr
 eq
 ----------------------------------------------------------------------

 Structure from the checkpoint file:  "CCNpCdNpCpNpCtN.chk"
 -------------------
 Title Card Required
 -------------------
 Charge =  0 Multiplicity = 1

                         Standard orientation:
 ---------------------------------------------------------------------
 Center     Atomic      Atomic             Coordinates (Angstroms)
 Number     Number       Type             X           Y           Z
 ---------------------------------------------------------------------
      1          6           0        1.738931   -1.735186    0.146933
      2          6           0        1.382586   -0.495345    0.976221
      3          7           0        0.354442    0.357044    0.385001
      4          6           0        0.666879    1.222088   -0.648464
      5          7           0        1.797803    1.549798   -1.133867
      6          6           0       -1.056039    0.027552    0.636450
      7          7           0       -1.942027    1.134519    0.931803
      8          6           0       -1.645759   -0.753930   -0.477926
      9          7           0       -2.064066   -1.372879   -1.359217
     10          1           0        2.528135   -2.307540    0.644310
     11          1           0        2.093692   -1.451605   -0.847404
     12          1           0        0.871640   -2.389413    0.019534
     13          1           0        2.273075    0.120794    1.141585
     14          1           0        1.032679   -0.793223    1.970864
     15          1           0       -0.219025    1.698985   -1.073099
     16          1           0        2.572691    1.053917   -0.692067
     17          1           0       -1.047120   -0.631609    1.511925
     18          1           0       -2.120953    1.704573    0.113060
     19          1           0       -1.527465    1.724664    1.645972
 ---------------------------------------------------------------------

 SCF Done:  E(RB3LYP) =  -415.541279001     A.U. after    1 cycles

 The electronic state is 1-A.
 Alpha  occ. eigenvalues --  -14.37241 -14.35113 -14.34202 -14.30121 -10.30982
 Alpha  occ. eigenvalues --  -10.25741 -10.24235 -10.23011 -10.19318  -0.99377
 Alpha  occ. eigenvalues --   -0.92483  -0.90498  -0.86917  -0.77513  -0.72696
 Alpha  occ. eigenvalues --   -0.66844  -0.59547  -0.56898  -0.54040  -0.51693
 Alpha  occ. eigenvalues --   -0.48936  -0.45546  -0.44877  -0.43663  -0.41725
 Alpha  occ. eigenvalues --   -0.38940  -0.37376  -0.37116  -0.35653  -0.34244
 Alpha  occ. eigenvalues --   -0.34001  -0.29475  -0.26581  -0.24073
 Alpha virt. eigenvalues --    0.00240   0.01920   0.03034   0.06343   0.07357
 Alpha virt. eigenvalues --    0.09676   0.11248   0.12842   0.13802   0.14030
 Alpha virt. eigenvalues --    0.15364   0.16595   0.17744   0.18908   0.20883

 Mulliken charges:
               1
     1  C   -0.384266
     2  C   -0.186941
     3  N   -0.031703
     4  C    0.132449
     5  N   -0.499137
     6  C   -0.129579
     7  N   -0.492557
     8  C    0.312450
     9  N   -0.317112
    10  H    0.123437
    11  H    0.144371
    12  H    0.138552
    13  H    0.122075
    14  H    0.114179
    15  H    0.102270
    16  H    0.212046
    17  H    0.139917
    18  H    0.254109
    19  H    0.245439
 Sum of Mulliken charges =  -0.00000

 Dipole moment (field-independent basis, Debye):
    X=              1.2153    Y=              0.3327    Z=              4.3161  Tot=              4.4962
 Quadrupole moment (field-independent basis, Debye-Ang):
   XX=            -59.8056   YY=            -56.8703   ZZ=            -57.8952
   XY=            -10.4259   XZ=              0.8764   YZ=             -0.3788

  Exact polarizability:  87.067   2.345  75.099   0.668  -1.221  71.405
 Approx polarizability: 125.235  10.420 108.149  -0.027  -0.218 117.503

                      1                      2                      3
                      A                      A                      A
 Frequencies --     35.9197                72.9502               105.1682
 Red. masses --      4.4133                 3.5051                 4.3644
 Frc consts  --      0.0034                 0.0110                 0.0284
 IR Inten    --      4.8474                 0.4363                 2.2429

                      4                      5                      6
                      A                      A                      A
 Frequencies --    185.0417               199.4773               210.4753
 Red. masses --      3.2164                 2.4810                 1.8223
 Frc consts  --      0.0649                 0.0582                 0.0476
 IR Inten    --      0.9964                 4.0080                 2.7511

                      7                      8                      9
                      A                      A                      A
 Frequencies --    223.2755               288.2402               314.1004
 Red. masses --      1.3077                 2.2348                 2.0005
 Frc consts  --      0.0384                 0.1094                 0.1163
 IR Inten    --      1.6005                23.2824                26.3869

                     10                     11                     12
                      A                      A                      A
 Frequencies --    357.5618               398.7224               477.5980
 Red. masses --      2.4350                 2.7066                 3.3486
 Frc consts  --      0.1834                 0.2535                 0.4500
 IR Inten    --      3.9550                 4.5294                 8.2005

                     13                     14                     15
                      A                      A                      A
 Frequencies --    516.1589               602.4526               679.9115
 Red. masses --      6.5617                 5.8031                 2.5490
 Frc consts  --      1.0300                 1.2410                 0.6943
 IR Inten    --      5.9381                 0.7889                16.3174

                     16                     17                     18
                      A                      A                      A
 Frequencies --    764.8276               800.3087               829.9157
 Red. masses --      1.7410                 1.3098                 2.0854
 Frc consts  --      0.6000                 0.4943                 0.8463
 IR Inten    --     62.8969                26.6042                44.0297

                     19                     20                     21
                      A                      A                      A
 Frequencies --    850.6706               878.1415               968.1272
 Red. masses --      2.6572                 2.8384                 2.4537
 Frc consts  --      1.1329                 1.2896                 1.3550
 IR Inten    --    126.4251                79.0256                28.9795

                     22                     23                     24
                      A                      A                      A
 Frequencies --   1064.2351              1071.3551              1098.1902
 Red. masses --      1.7636                 1.4064                 1.8772
 Frc consts  --      1.1769                 0.9511                 1.3339
 IR Inten    --     74.6236                65.1269                 6.1490

                     25                     26                     27
                      A                      A                      A
 Frequencies --   1126.5752              1159.6277              1200.7649
 Red. masses --      2.4170                 1.6161                 1.4533
 Frc consts  --      1.8074                 1.2804                 1.2346
 IR Inten    --     17.2753                69.9916                51.7187

                     28                     29                     30
                      A                      A                      A
 Frequencies --   1235.8250              1294.7054              1339.8461
 Red. masses --      2.0562                 1.9765                 1.2358
 Frc consts  --      1.8503                 1.9521                 1.3071
 IR Inten    --      1.6053               153.2920                 6.6232

                     31                     32                     33
                      A                      A                      A
 Frequencies --   1386.1685              1394.5226              1413.1660
 Red. masses --      1.2919                 1.3785                 1.2425
 Frc consts  --      1.4626                 1.5795                 1.4619
 IR Inten    --     21.4981                13.9014                11.6834

                     34                     35                     36
                      A                      A                      A
 Frequencies --   1432.1510              1457.5533              1489.0052
 Red. masses --      1.3569                 1.3039                 1.0729
 Frc consts  --      1.6398                 1.6321                 1.4015
 IR Inten    --     49.0223                15.8998                 5.0894

                     37                     38                     39
                      A                      A                      A
 Frequencies --   1492.8098              1506.6665              1660.0719
 Red. masses --      1.0421                 1.0755                 1.0925
 Frc consts  --      1.3683                 1.4385                 1.7740
 IR Inten    --      6.8436                 9.3315                23.4877

                     40                     41                     42
                      A                      A                      A
 Frequencies --   1706.0382              2358.5165              3036.4902
 Red. masses --      6.9763                12.6708                 1.0607
 Frc consts  --     11.9634                41.5270                 5.7620
 IR Inten    --    238.4113                 0.3070                25.0704

                     43                     44                     45
                      A                      A                      A
 Frequencies --   3044.6857              3047.7952              3071.5267
 Red. masses --      1.0354                 1.0830                 1.1032
 Frc consts  --      5.6553                 5.9271                 6.1320
 IR Inten    --     13.0341                 8.9731                11.2982

                     46                     47                     48
                      A                      A                      A
 Frequencies --   3108.4967              3117.0071              3127.2939
 Red. masses --      1.0865                 1.1017                 1.1027
 Frc consts  --      6.1855                 6.3062                 6.3540
 IR Inten    --     24.9278                24.0872                16.8060

                     49                     50                     51
                      A                      A                      A
 Frequencies --   3473.5818              3514.5745              3605.1584
 Red. masses --      1.0733                 1.0484                 1.0943
 Frc consts  --      7.6300                 7.6298                 8.3801
 IR Inten    --      4.4980                 5.8023                 8.2880

 - Thermochemistry -
 -------------------
 Temperature   298.150 Kelvin.  Pressure   1.00000 Atm.
 Atom     1 has atomic number  6 and mass  12.00000

 Molecular mass:   126.09055 amu.
 Principal axes and moments of inertia in atomic units:
                           1         2         3
     Eigenvalues --   934.389551425.257501679.10006
           X            0.99416  -0.10784  -0.00338
           Y            0.10769   0.99373  -0.03009
           Z            0.00661   0.02955   0.99954
 This molecule is an asymmetric top.
 Rotational symmetry number  1.
 Warning -- assumption of classical behavior for rotation
           may cause significant error
 Rotational temperatures (Kelvin)      0.09270     0.06077     0.05158
 Rotational constants (GHZ):           1.93147     1.26626     1.07483
 Zero-point vibrational energy     417457.5 (Joules/Mol)
                                   99.77475 (Kcal/Mol)
 Warning -- explicit consideration of  14 degrees of freedom as
           vibrations may cause significant error
 Vibrational temperatures:     51.68   104.96   151.31   266.23   287.00
          (Kelvin)            302.83   321.24   414.71   451.92   514.45
                              573.67   687.16   742.64   866.79   978.24
                             1100.42  1151.47  1194.06  1223.93  1263.45
                             1392.92  1531.20  1541.44  1580.05  1620.89
                             1668.45  1727.63  1778.08  1862.79  1927.74
                             1994.39  2006.41  2033.23  2060.55  2097.09
                             2142.35  2147.82  2167.76  2388.47  2454.61
                             3393.38  4368.83  4380.62  4385.10  4419.24
                             4472.43  4484.68  4499.48  4997.71  5056.69
                             5187.02

 Zero-point correction=                           0.159001 (Hartree/Particle)
 Thermal correction to Energy=                    0.169295
 Thermal correction to Enthalpy=                  0.170239
 Thermal correction to Gibbs Free Energy=         0.122938
 Sum of electronic and zero-point Energies=           -415.382278
 Sum of electronic and thermal Energies=              -415.371984
 Sum of electronic and thermal Enthalpies=            -415.371040
 Sum of electronic and thermal Free Energies=         -415.418341

                     E (Thermal)             CV                S
                      KCal/Mol        Cal/Mol-Kelvin    Cal/Mol-Kelvin
 Total                  106.234             36.318             99.553
 Electronic               0.000              0.000              0.000
 Translational            0.889              2.981             40.409
 Rotational               0.889              2.981             29.193
 Vibrational            104.457             30.356             29.951
 Vibration     1          0.594              1.982              5.472
 Vibration     2          0.599              1.967              4.072
 Vibration     3          0.605              1.945              3.356
 Vibration     4          0.631              1.860              2.277
 Vibration     5          0.638              1.841              2.138
 Vibration     6          0.643              1.825              2.040
 Vibration     7          0.649              1.806              1.932
 Vibration     8          0.685              1.696              1.484
 Vibration     9          0.702              1.647              1.341
 Vibration    10          0.733              1.560              1.133
 Vibration    11          0.765              1.473              0.967
 Vibration    12          0.834              1.300              0.717
 Vibration    13          0.871              1.214              0.619
 Vibration    14          0.961              1.027              0.445

 Optimization completed.
    -- Stationary point found.
 Normal termination of Gaussian 16 at Mon May 31 19:42:01 2021.
