 Gaussian 16, Revision A.03,
 Gaussian 16:  ES64L-G16RevA.03 25-Dec-2016

 -----------------------------
 # opt freq b3lyp/6-31g(2df,p)
 -----------------------------

 -------------------
 Title Card Required
 -------------------
 Symbolic Z-matrix:
 Charge =  0 Multiplicity = 1

 SCF Done:  E(RB3LYP) =  -362.561234806     A.U. after   13 cycles
 SCF Done:  E(RB3LYP) =  -362.564382498     A.U. after   13 cycles
 SCF Done:  E(RB3LYP) =  -362.567519370     A.U. after   13 cycles
 SCF Done:  E(RB3LYP) =  -362.568097127     A.U. after   13 cycles
 SCF Done:  E(RB3LYP) =  -362.568505072     A.U. after   12 cycles
 SCF Done:  E(RB3LYP) =  -362.568781541     A.U. after   13 cycles
 SCF Done:  E(RB3LYP) =  -362.569321862     A.U. after   13 cycles
 SCF Done:  E(RB3LYP) =  -362.569931781     A.U. after   13 cycles
 SCF Done:  E(RB3LYP) =  -362.570720215     A.U. after   13 cycles
 SCF Done:  E(RB3LYP) =  -362.570953408     A.U. after   12 cycles
 SCF Done:  E(RB3LYP) =  -362.571077501     A.U. after   10 cycles
 SCF Done:  E(RB3LYP) =  -362.571081094     A.U. after   10 cycles
 SCF Done:  E(RB3LYP) =  -362.571089381     A.U. after   10 cycles
 SCF Done:  E(RB3LYP) =  -362.571093165     A.U. after   10 cycles
 SCF Done:  E(RB3LYP) =  -362.571097018     A.U. after    9 cycles
 SCF Done:  E(RB3LYP) =  -362.571097175     A.U. after   10 cycles
 SCF Done:  E(RB3LYP) =  -362.571097749     A.U. after    8 cycles
 SCF Done:  E(RB3LYP) =  -362.571097956     A.U. after    9 cycles
 SCF Done:  E(RB3LYP) =  -362.571097990     A.U. after    7 cycles
 Optimization completed.
    -- Stationary point found.
 Normal termination of Gaussian 16 at Tue Jun  1 08:41:38 2021.

 ----------------------------------------------------------------------
 #N Geom=AllCheck Guess=TCheck SCRF=Check GenChk RB3LYP/6-31G(2df,p) Fr
 eq
 ----------------------------------------------------------------------

 Structure from the checkpoint file:  "CCNpCCpCNdN.chk"
 -------------------
 Title Card Required
 -------------------
 Charge =  0 Multiplicity = 1

                         Standard orientation:
 ---------------------------------------------------------------------
 Center     Atomic      Atomic             Coordinates (Angstroms)
 Number     Number       Type             X           Y           Z
 ---------------------------------------------------------------------
      1          6           0       -2.785532   -0.416519   -0.453048
      2          6           0       -1.574638   -1.052054    0.231372
      3          7           0       -0.348625   -0.283487    0.037707
      4          6           0       -0.313488    1.016515    0.722787
      5          6           0       -0.194483    2.196658   -0.244705
      6          6           0        0.864207   -1.043288    0.184030
      7          7           0        1.951979   -0.423689   -0.609876
      8          7           0        2.981100   -0.260417    0.064298
      9          1           0       -3.671343   -1.044567   -0.313363
     10          1           0       -2.601678   -0.300746   -1.525026
     11          1           0       -3.014297    0.570736   -0.039948
     12          1           0       -1.412662   -2.047511   -0.196227
     13          1           0       -1.800714   -1.206108    1.304073
     14          1           0        0.530063    1.036256    1.427646
     15          1           0       -1.217888    1.127958    1.334188
     16          1           0        0.706878    2.099973   -0.855802
     17          1           0       -0.145250    3.144369    0.303218
     18          1           0       -1.052715    2.233116   -0.922042
     19          1           0        0.715415   -2.034360   -0.260857
     20          1           0        1.210966   -1.169430    1.227253
     21          1           0        3.685656    0.155600   -0.570635
 ---------------------------------------------------------------------

 SCF Done:  E(RB3LYP) =  -362.571097990     A.U. after    1 cycles

 The electronic state is 1-A.
 Alpha  occ. eigenvalues --  -14.37923 -14.37230 -14.31921 -10.22838 -10.20949
 Alpha  occ. eigenvalues --  -10.20410 -10.17394 -10.16634  -1.02749  -0.92182
 Alpha  occ. eigenvalues --   -0.76484  -0.75527  -0.70195  -0.62718  -0.60458
 Alpha  occ. eigenvalues --   -0.56474  -0.49504  -0.49272  -0.46918  -0.44612
 Alpha  occ. eigenvalues --   -0.42409  -0.41389  -0.39509  -0.39087  -0.37439
 Alpha  occ. eigenvalues --   -0.36682  -0.35583  -0.34580  -0.33608  -0.32999
 Alpha  occ. eigenvalues --   -0.22965  -0.21092
 Alpha virt. eigenvalues --   -0.04068   0.08659   0.10595   0.10907   0.13046
 Alpha virt. eigenvalues --    0.13443   0.13793   0.15382   0.16479   0.17142
 Alpha virt. eigenvalues --    0.17817   0.18421   0.19790   0.20442   0.20949

 Mulliken charges:
               1
     1  C   -0.379200
     2  C   -0.127087
     3  N   -0.044658
     4  C   -0.148766
     5  C   -0.358530
     6  C   -0.085547
     7  N   -0.108200
     8  N   -0.276323
     9  H    0.111361
    10  H    0.124834
    11  H    0.119851
    12  H    0.099223
    13  H    0.080431
    14  H    0.104104
    15  H    0.096290
    16  H    0.126745
    17  H    0.102394
    18  H    0.117167
    19  H    0.114576
    20  H    0.087515
    21  H    0.243818
 Sum of Mulliken charges =  -0.00000

 Dipole moment (field-independent basis, Debye):
    X=             -0.6457    Y=             -0.2125    Z=              0.3127  Tot=              0.7482
 Quadrupole moment (field-independent basis, Debye-Ang):
   XX=            -48.5455   YY=            -48.7005   ZZ=            -52.9242
   XY=              1.7184   XZ=             -2.5550   YZ=              0.7025

  Exact polarizability:  96.999   5.042  75.134  -0.108  -1.065  63.971
 Approx polarizability: 125.886   7.365 102.505   2.853   0.917  98.937

                      1                      2                      3
                      A                      A                      A
 Frequencies --     34.8669                49.3403                69.4453
 Red. masses --      2.4412                 3.4152                 5.6083
 Frc consts  --      0.0017                 0.0049                 0.0159
 IR Inten    --      0.0210                 0.2617                 0.0202

                      4                      5                      6
                      A                      A                      A
 Frequencies --    129.1674               172.3127               222.7650
 Red. masses --      1.7217                 3.3427                 1.0971
 Frc consts  --      0.0169                 0.0585                 0.0321
 IR Inten    --      0.9876                 1.3758                 0.0395

                      7                      8                      9
                      A                      A                      A
 Frequencies --    248.6902               330.4076               348.1356
 Red. masses --      1.1930                 2.0782                 3.0575
 Frc consts  --      0.0435                 0.1337                 0.2183
 IR Inten    --      0.0328                 1.0285                 0.2328

                     10                     11                     12
                      A                      A                      A
 Frequencies --    370.5117               441.7711               486.9579
 Red. masses --      3.1260                 3.1134                 2.4034
 Frc consts  --      0.2528                 0.3580                 0.3358
 IR Inten    --      1.5235                 3.8296                 1.3111

                     13                     14                     15
                      A                      A                      A
 Frequencies --    571.5068               768.8472               782.1293
 Red. masses --      2.8179                 2.0251                 1.2135
 Frc consts  --      0.5423                 0.7053                 0.4374
 IR Inten    --      3.1287                 9.7832                 8.9262

                     16                     17                     18
                      A                      A                      A
 Frequencies --    807.2109               870.0977               931.9304
 Red. masses --      1.1574                 1.9509                 1.7558
 Frc consts  --      0.4443                 0.8702                 0.8985
 IR Inten    --      2.8445                12.6931                 4.1300

                     19                     20                     21
                      A                      A                      A
 Frequencies --   1000.2104              1013.7687              1080.1767
 Red. masses --      2.3440                 2.4538                 2.4432
 Frc consts  --      1.3816                 1.4858                 1.6795
 IR Inten    --      6.3450                 5.3188                10.8536

                     22                     23                     24
                      A                      A                      A
 Frequencies --   1093.1892              1101.9987              1104.7626
 Red. masses --      1.6553                 1.8703                 1.8951
 Frc consts  --      1.1655                 1.3382                 1.3628
 IR Inten    --     14.8896                13.1440                45.4332

                     25                     26                     27
                      A                      A                      A
 Frequencies --   1139.8421              1220.2517              1253.8237
 Red. masses --      1.7941                 1.6977                 2.1716
 Frc consts  --      1.3733                 1.4894                 2.0114
 IR Inten    --     19.3419                44.4327                34.8914

                     28                     29                     30
                      A                      A                      A
 Frequencies --   1280.2923              1331.4603              1356.5584
 Red. masses --      1.3154                 1.2275                 1.1744
 Frc consts  --      1.2703                 1.2821                 1.2733
 IR Inten    --      7.3091                23.7836                16.0446

                     31                     32                     33
                      A                      A                      A
 Frequencies --   1382.8053              1390.3072              1404.7178
 Red. masses --      1.4071                 1.3159                 1.2331
 Frc consts  --      1.5852                 1.4987                 1.4336
 IR Inten    --     57.8140                22.1430                 5.2844

                     34                     35                     36
                      A                      A                      A
 Frequencies --   1409.9189              1428.4664              1473.8899
 Red. masses --      1.2794                 1.3440                 1.1023
 Frc consts  --      1.4985                 1.6158                 1.4109
 IR Inten    --     11.6222                 4.8227                 6.2653

                     37                     38                     39
                      A                      A                      A
 Frequencies --   1481.2481              1486.9044              1489.9629
 Red. masses --      1.0542                 1.0609                 1.2105
 Frc consts  --      1.3627                 1.3820                 1.5834
 IR Inten    --      0.9812                 0.5241                13.7595

                     40                     41                     42
                      A                      A                      A
 Frequencies --   1494.2941              1497.8374              1511.1915
 Red. masses --      1.0908                 1.0449                 1.0720
 Frc consts  --      1.4350                 1.3811                 1.4424
 IR Inten    --      6.8538                 3.8490                 5.2829

                     43                     44                     45
                      A                      A                      A
 Frequencies --   1516.6442              1646.7675              2912.3484
 Red. masses --      1.1074                 9.9197                 1.0709
 Frc consts  --      1.5008                15.8495                 5.3515
 IR Inten    --      7.7252                 4.7711                36.5214

                     46                     47                     48
                      A                      A                      A
 Frequencies --   2922.0123              2997.3587              3034.7926
 Red. masses --      1.0702                 1.0617                 1.0373
 Frc consts  --      5.3836                 5.6197                 5.6287
 IR Inten    --    104.8610                37.6719                24.3397

                     49                     50                     51
                      A                      A                      A
 Frequencies --   3037.9490              3041.5019              3050.4360
 Red. masses --      1.0391                 1.0944                 1.0900
 Frc consts  --      5.6503                 5.9648                 5.9759
 IR Inten    --     11.8001                34.2542                 3.2298

                     52                     53                     54
                      A                      A                      A
 Frequencies --   3060.1179              3105.4722              3107.2162
 Red. masses --      1.0874                 1.1001                 1.1001
 Frc consts  --      5.9997                 6.2510                 6.2578
 IR Inten    --     33.8582                60.2567                11.8504

                     55                     56                     57
                      A                      A                      A
 Frequencies --   3117.4454              3121.6341              3242.1466
 Red. masses --      1.1026                 1.1021                 1.0738
 Frc consts  --      6.3133                 6.3276                 6.6501
 IR Inten    --     27.7185                27.6949                28.9354

 - Thermochemistry -
 -------------------
 Temperature   298.150 Kelvin.  Pressure   1.00000 Atm.
 Atom     1 has atomic number  6 and mass  12.00000

 Molecular mass:   115.11095 amu.
 Principal axes and moments of inertia in atomic units:
                           1         2         3
     Eigenvalues --   589.985221406.314521800.58764
           X            0.99988   0.01459   0.00503
           Y           -0.01453   0.99983  -0.01153
           Z           -0.00520   0.01145   0.99992
 This molecule is an asymmetric top.
 Rotational symmetry number  1.
 Warning -- assumption of classical behavior for rotation
           may cause significant error
 Rotational temperatures (Kelvin)      0.14681     0.06159     0.04810
 Rotational constants (GHZ):           3.05896     1.28331     1.00231
 Zero-point vibrational energy     490336.2 (Joules/Mol)
                                  117.19317 (Kcal/Mol)
 Warning -- explicit consideration of  13 degrees of freedom as
           vibrations may cause significant error
 Vibrational temperatures:     50.17    70.99    99.92   185.84   247.92
          (Kelvin)            320.51   357.81   475.38   500.89   533.08
                              635.61   700.62   822.27  1106.20  1125.31
                             1161.40  1251.88  1340.84  1439.08  1458.59
                             1554.13  1572.86  1585.53  1589.51  1639.98
                             1755.67  1803.97  1842.06  1915.67  1951.79
                             1989.55  2000.34  2021.08  2028.56  2055.24
                             2120.60  2131.19  2139.32  2143.72  2149.96
                             2155.05  2174.27  2182.11  2369.33  4190.22
                             4204.12  4312.53  4366.39  4370.93  4376.04
                             4388.90  4402.83  4468.08  4470.59  4485.31
                             4491.34  4664.73

 Zero-point correction=                           0.186759 (Hartree/Particle)
 Thermal correction to Energy=                    0.196848
 Thermal correction to Enthalpy=                  0.197792
 Thermal correction to Gibbs Free Energy=         0.150369
 Sum of electronic and zero-point Energies=           -362.384339
 Sum of electronic and thermal Energies=              -362.374250
 Sum of electronic and thermal Enthalpies=            -362.373306
 Sum of electronic and thermal Free Energies=         -362.420729

                     E (Thermal)             CV                S
                      KCal/Mol        Cal/Mol-Kelvin    Cal/Mol-Kelvin
 Total                  123.524             34.849             99.809
 Electronic               0.000              0.000              0.000
 Translational            0.889              2.981             40.137
 Rotational               0.889              2.981             28.792
 Vibrational            121.746             28.887             30.879
 Vibration     1          0.594              1.983              5.531
 Vibration     2          0.595              1.978              4.844
 Vibration     3          0.598              1.969              4.169
 Vibration     4          0.612              1.924              2.958
 Vibration     5          0.626              1.877              2.410
 Vibration     6          0.648              1.806              1.937
 Vibration     7          0.662              1.765              1.740
 Vibration     8          0.713              1.615              1.258
 Vibration     9          0.726              1.579              1.175
 Vibration    10          0.743              1.533              1.078
 Vibration    11          0.802              1.379              0.821
 Vibration    12          0.843              1.279              0.692
 Vibration    13          0.928              1.093              0.501

 Optimization completed.
    -- Stationary point found.
 Normal termination of Gaussian 16 at Tue Jun  1 09:15:23 2021.
