 Gaussian 16, Revision A.03,
 Gaussian 16:  ES64L-G16RevA.03 25-Dec-2016

 -----------------------------
 # opt freq b3lyp/6-31g(2df,p)
 -----------------------------

 -------------------
 Title Card Required
 -------------------
 Symbolic Z-matrix:
 Charge =  0 Multiplicity = 1

 SCF Done:  E(RB3LYP) =  -484.385274553     A.U. after   13 cycles
 SCF Done:  E(RB3LYP) =  -484.391913454     A.U. after   11 cycles
 SCF Done:  E(RB3LYP) =  -484.393104027     A.U. after   11 cycles
 SCF Done:  E(RB3LYP) =  -484.393261791     A.U. after   11 cycles
 SCF Done:  E(RB3LYP) =  -484.392519459     A.U. after   12 cycles
 SCF Done:  E(RB3LYP) =  -484.393378373     A.U. after    9 cycles
 SCF Done:  E(RB3LYP) =  -484.393386888     A.U. after    8 cycles
 SCF Done:  E(RB3LYP) =  -484.393388441     A.U. after    7 cycles
 SCF Done:  E(RB3LYP) =  -484.393388934     A.U. after    8 cycles
 SCF Done:  E(RB3LYP) =  -484.393389094     A.U. after    7 cycles
 SCF Done:  E(RB3LYP) =  -484.393389178     A.U. after    7 cycles
 SCF Done:  E(RB3LYP) =  -484.393389200     A.U. after    7 cycles
 Optimization completed on the basis of negligible forces.
    -- Stationary point found.
 Normal termination of Gaussian 16 at Tue Jun  1 10:24:01 2021.

 ----------------------------------------------------------------------
 #N Geom=AllCheck Guess=TCheck SCRF=Check GenChk RB3LYP/6-31G(2df,p) Fr
 eq
 ----------------------------------------------------------------------

 Structure from the checkpoint file:  "CCNpCpCCCCCCdO.chk"
 -------------------
 Title Card Required
 -------------------
 Charge =  0 Multiplicity = 1

                         Standard orientation:
 ---------------------------------------------------------------------
 Center     Atomic      Atomic             Coordinates (Angstroms)
 Number     Number       Type             X           Y           Z
 ---------------------------------------------------------------------
      1          6           0       -5.108283   -0.465105   -0.660767
      2          6           0       -3.853952   -0.768352    0.159708
      3          7           0       -2.738646    0.137797   -0.116208
      4          6           0       -3.013373    1.493843    0.337619
      5          6           0       -1.484953   -0.379694    0.428285
      6          6           0       -0.234560    0.297667   -0.142523
      7          6           0        1.057394   -0.392147    0.309698
      8          6           0        2.322553    0.280148   -0.232077
      9          6           0        3.612719   -0.412088    0.212634
     10          6           0        4.874945    0.247064   -0.317336
     11          8           0        5.990876   -0.139855   -0.087098
     12          1           0       -5.848637   -1.257721   -0.514036
     13          1           0       -4.863462   -0.411616   -1.725777
     14          1           0       -5.581625    0.477258   -0.371151
     15          1           0       -3.516019   -1.781209   -0.086380
     16          1           0       -4.111940   -0.779785    1.238445
     17          1           0       -3.919852    1.877213   -0.135769
     18          1           0       -2.196551    2.162790    0.057575
     19          1           0       -3.147437    1.559154    1.436009
     20          1           0       -1.437740   -1.446949    0.180848
     21          1           0       -1.462575   -0.317344    1.536326
     22          1           0       -0.196024    1.351174    0.159363
     23          1           0       -0.303639    0.288418   -1.237242
     24          1           0        1.042382   -1.443825   -0.008496
     25          1           0        1.099740   -0.410155    1.407624
     26          1           0        2.343801    1.330342    0.089912
     27          1           0        2.281321    0.302993   -1.329627
     28          1           0        3.630725   -1.461805   -0.108976
     29          1           0        3.691242   -0.438616    1.307578
     30          1           0        4.704854    1.145930   -0.957441
 ---------------------------------------------------------------------

 SCF Done:  E(RB3LYP) =  -484.393389200     A.U. after    1 cycles

 The electronic state is 1-A.
 Alpha  occ. eigenvalues --  -19.13715 -14.31657 -10.27066 -10.20327 -10.20299
 Alpha  occ. eigenvalues --  -10.19656 -10.19465 -10.19281 -10.18801 -10.18102
 Alpha  occ. eigenvalues --  -10.17303  -1.04467  -0.91727  -0.81450  -0.77029
 Alpha  occ. eigenvalues --   -0.74084  -0.70253  -0.66729  -0.61399  -0.58764
 Alpha  occ. eigenvalues --   -0.57387  -0.56888  -0.49175  -0.47923  -0.47325
 Alpha  occ. eigenvalues --   -0.46161  -0.44592  -0.44099  -0.43401  -0.41626
 Alpha  occ. eigenvalues --   -0.40033  -0.39749  -0.38140  -0.37399  -0.36806
 Alpha  occ. eigenvalues --   -0.36114  -0.35613  -0.34202  -0.33789  -0.33459
 Alpha  occ. eigenvalues --   -0.32924  -0.32387  -0.24886  -0.21130
 Alpha virt. eigenvalues --   -0.02285   0.07912   0.08773   0.10436   0.11333
 Alpha virt. eigenvalues --    0.11699   0.12136   0.13182   0.13939   0.14649
 Alpha virt. eigenvalues --    0.15770   0.16350   0.16589   0.17187   0.17774

 Mulliken charges:
               1
     1  C   -0.393688
     2  C   -0.102397
     3  N   -0.058782
     4  C   -0.324162
     5  C   -0.127538
     6  C   -0.203570
     7  C   -0.178102
     8  C   -0.197994
     9  C   -0.276504
    10  C    0.152517
    11  O   -0.244286
    12  H    0.113189
    13  H    0.123225
    14  H    0.118747
    15  H    0.096500
    16  H    0.071283
    17  H    0.120032
    18  H    0.119034
    19  H    0.085986
    20  H    0.093684
    21  H    0.070286
    22  H    0.096771
    23  H    0.104412
    24  H    0.097230
    25  H    0.098075
    26  H    0.102271
    27  H    0.103761
    28  H    0.133347
    29  H    0.133113
    30  H    0.073560
 Sum of Mulliken charges =   0.00000

 Dipole moment (field-independent basis, Debye):
    X=             -2.8404    Y=              0.2950    Z=              0.2467  Tot=              2.8664
 Quadrupole moment (field-independent basis, Debye-Ang):
   XX=            -96.0140   YY=            -68.2592   ZZ=            -70.5574
   XY=              2.6677   XZ=             -1.7248   YZ=              0.5538

  Exact polarizability: 143.934   0.313  98.607   1.132  -2.596  91.119
 Approx polarizability: 162.735  -3.187 147.712   1.999  -2.967 141.897

 ******    1 imaginary frequencies (negative Signs) ******

                      1                      2                      3
                      A                      A                      A
 Frequencies --    -90.3032                31.9786                38.6844
 Red. masses --      2.5102                 3.7525                 1.8273
 Frc consts  --      0.0121                 0.0023                 0.0016
 IR Inten    --     10.2319                 0.2733                 0.5507

                      4                      5                      6
                      A                      A                      A
 Frequencies --     55.4640                70.9106                97.1003
 Red. masses --      3.6767                 2.9115                 1.8607
 Frc consts  --      0.0067                 0.0086                 0.0103
 IR Inten    --      0.6626                 0.4016                 0.2935

                      7                      8                      9
                      A                      A                      A
 Frequencies --    128.1538               143.9136               159.2131
 Red. masses --      1.9464                 1.9687                 3.7355
 Frc consts  --      0.0188                 0.0240                 0.0558
 IR Inten    --      0.0140                 0.0158                 2.9613

                     10                     11                     12
                      A                      A                      A
 Frequencies --    202.8566               221.7470               258.9280
 Red. masses --      1.3263                 2.5396                 1.4964
 Frc consts  --      0.0322                 0.0736                 0.0591
 IR Inten    --      0.4515                 0.1050                 0.8509

                     13                     14                     15
                      A                      A                      A
 Frequencies --    281.9391               363.0425               380.6633
 Red. masses --      2.3436                 2.5445                 2.0730
 Frc consts  --      0.1098                 0.1976                 0.1770
 IR Inten    --      0.9300                 1.5738                 4.4073

                     16                     17                     18
                      A                      A                      A
 Frequencies --    413.2843               453.3664               529.7293
 Red. masses --      3.0713                 3.6601                 2.6238
 Frc consts  --      0.3091                 0.4432                 0.4338
 IR Inten    --      1.1918                 5.0192                 2.3372

                     19                     20                     21
                      A                      A                      A
 Frequencies --    568.8077               659.1829               739.7998
 Red. masses --      3.7131                 1.1804                 1.0863
 Frc consts  --      0.7078                 0.3022                 0.3503
 IR Inten    --      8.7926                 1.9419                 2.0636

                     22                     23                     24
                      A                      A                      A
 Frequencies --    788.1551               809.8347               821.2239
 Red. masses --      1.1936                 1.2585                 2.3637
 Frc consts  --      0.4368                 0.4863                 0.9392
 IR Inten    --      0.3983                 5.5691                 8.6337

                     25                     26                     27
                      A                      A                      A
 Frequencies --    887.9572               957.0219               991.0122
 Red. masses --      1.2630                 2.6418                 1.2649
 Frc consts  --      0.5867                 1.4256                 0.7319
 IR Inten    --      0.3938                 9.7588                 0.4393

                     28                     29                     30
                      A                      A                      A
 Frequencies --   1000.5019              1029.0658              1045.2804
 Red. masses --      4.0965                 3.2309                 2.5038
 Frc consts  --      2.4160                 2.0158                 1.6118
 IR Inten    --     37.2791                 4.8280                 5.2971

                     31                     32                     33
                      A                      A                      A
 Frequencies --   1063.9568              1069.3282              1085.1394
 Red. masses --      2.0935                 2.1976                 2.3935
 Frc consts  --      1.3963                 1.4805                 1.6606
 IR Inten    --     37.7431                 3.3717                16.3030

                     34                     35                     36
                      A                      A                      A
 Frequencies --   1102.0203              1121.6601              1138.3974
 Red. masses --      3.8798                 1.4521                 1.5478
 Frc consts  --      2.7761                 1.0764                 1.1818
 IR Inten    --     21.6187                 3.2673                 9.5301

                     37                     38                     39
                      A                      A                      A
 Frequencies --   1165.9618              1181.3670              1226.3297
 Red. masses --      1.6619                 1.8818                 1.4853
 Frc consts  --      1.3312                 1.5474                 1.3161
 IR Inten    --      4.5845                13.0344                10.3212

                     40                     41                     42
                      A                      A                      A
 Frequencies --   1248.2193              1257.5089              1276.2802
 Red. masses --      1.7149                 1.7633                 1.4348
 Frc consts  --      1.5743                 1.6428                 1.3770
 IR Inten    --     11.1081                 9.9672                 2.0798

                     43                     44                     45
                      A                      A                      A
 Frequencies --   1303.3510              1319.5602              1327.1744
 Red. masses --      1.3846                 1.2018                 1.1215
 Frc consts  --      1.3857                 1.2330                 1.1639
 IR Inten    --      3.9887                 2.6374                 3.4400

                     46                     47                     48
                      A                      A                      A
 Frequencies --   1332.1720              1349.6918              1367.5336
 Red. masses --      1.0891                 1.2200                 1.4510
 Frc consts  --      1.1387                 1.3094                 1.5988
 IR Inten    --      4.3544                10.9016                 3.0595

                     49                     50                     51
                      A                      A                      A
 Frequencies --   1390.5975              1402.2024              1404.6568
 Red. masses --      1.3637                 1.5446                 1.3391
 Frc consts  --      1.5537                 1.7893                 1.5568
 IR Inten    --     29.9851                 3.2065                15.7402

                     52                     53                     54
                      A                      A                      A
 Frequencies --   1431.3394              1433.3418              1445.5710
 Red. masses --      1.2050                 1.3406                 1.0792
 Frc consts  --      1.4546                 1.6228                 1.3288
 IR Inten    --      3.2407                 2.1993                 7.4643

                     55                     56                     57
                      A                      A                      A
 Frequencies --   1461.3799              1481.7523              1484.5428
 Red. masses --      1.2065                 1.0754                 1.0725
 Frc consts  --      1.5181                 1.3911                 1.3927
 IR Inten    --      0.8096                 0.3922                 0.2032

                     58                     59                     60
                      A                      A                      A
 Frequencies --   1487.7744              1492.5394              1499.2717
 Red. masses --      1.0445                 1.0738                 1.0787
 Frc consts  --      1.3622                 1.4093                 1.4286
 IR Inten    --      5.7795                 0.5752                 2.8658

                     61                     62                     63
                      A                      A                      A
 Frequencies --   1501.4174              1507.9633              1512.8181
 Red. masses --      1.0561                 1.0598                 1.0787
 Frc consts  --      1.4027                 1.4198                 1.4546
 IR Inten    --      5.4524                 6.2164                 2.5839

                     64                     65                     66
                      A                      A                      A
 Frequencies --   1520.0090              1834.6909              2844.2085
 Red. masses --      1.1019                10.9088                 1.0815
 Frc consts  --      1.5000                21.6347                 5.1547
 IR Inten    --      5.9833               187.6750               104.7543

                     67                     68                     69
                      A                      A                      A
 Frequencies --   2884.0419              2896.2583              2912.2610
 Red. masses --      1.0721                 1.0721                 1.0637
 Frc consts  --      5.2540                 5.2985                 5.3152
 IR Inten    --     29.1451                70.3536               126.6531

                     70                     71                     72
                      A                      A                      A
 Frequencies --   3003.2039              3010.9470              3025.4672
 Red. masses --      1.0579                 1.0591                 1.0600
 Frc consts  --      5.6214                 5.6571                 5.7166
 IR Inten    --      2.3901                23.7281                 4.9098

                     73                     74                     75
                      A                      A                      A
 Frequencies --   3027.0586              3027.9833              3038.7246
 Red. masses --      1.0939                 1.0656                 1.0830
 Frc consts  --      5.9058                 5.7564                 5.8921
 IR Inten    --      5.8661                37.9626                13.7898

                     76                     77                     78
                      A                      A                      A
 Frequencies --   3041.4283              3045.3618              3051.7276
 Red. masses --      1.0369                 1.1011                 1.0858
 Frc consts  --      5.6514                 6.0164                 5.9581
 IR Inten    --     20.8781                 7.3048                31.1773

                     79                     80                     81
                      A                      A                      A
 Frequencies --   3065.2393              3075.7092              3087.8105
 Red. masses --      1.1021                 1.1023                 1.0701
 Frc consts  --      6.1009                 6.1440                 6.0112
 IR Inten    --      6.0003                89.0131                27.6126

                     82                     83                     84
                      A                      A                      A
 Frequencies --   3109.3737              3116.5649              3126.6915
 Red. masses --      1.1000                 1.1024                 1.1014
 Frc consts  --      6.2657                 6.3086                 6.3438
 IR Inten    --     45.6299                24.4499                31.0997

 - Thermochemistry -
 -------------------
 Temperature   298.150 Kelvin.  Pressure   1.00000 Atm.
 Atom     1 has atomic number  6 and mass  12.00000

 Molecular mass:   157.14666 amu.
 Principal axes and moments of inertia in atomic units:
                           1         2         3
     Eigenvalues --   373.370457397.619547551.84431
           X            1.00000   0.00080   0.00045
           Y           -0.00079   0.99984  -0.01766
           Z           -0.00046   0.01766   0.99984
 This molecule is an asymmetric top.
 Rotational symmetry number  1.
 Rotational temperatures (Kelvin)      0.23198     0.01171     0.01147
 Rotational constants (GHZ):           4.83365     0.24396     0.23898
    1 imaginary frequencies ignored.
 Zero-point vibrational energy     710261.2 (Joules/Mol)
                                  169.75650 (Kcal/Mol)
 Warning -- explicit consideration of  18 degrees of freedom as
           vibrations may cause significant error
 Vibrational temperatures:     46.01    55.66    79.80   102.02   139.71
          (Kelvin)            184.38   207.06   229.07   291.87   319.04
                              372.54   405.65   522.34   547.69   594.62
                              652.29   762.16   818.39   948.42  1064.41
                             1133.98  1165.17  1181.56  1277.57  1376.94
                             1425.85  1439.50  1480.60  1503.93  1530.80
                             1538.52  1561.27  1585.56  1613.82  1637.90
                             1677.56  1699.72  1764.41  1795.91  1809.27
                             1836.28  1875.23  1898.55  1909.51  1916.70
                             1941.91  1967.58  2000.76  2017.46  2020.99
                             2059.38  2062.26  2079.85  2102.60  2131.91
                             2135.93  2140.58  2147.43  2157.12  2160.20
                             2169.62  2176.61  2186.95  2639.71  4092.18
                             4149.49  4167.07  4190.09  4320.94  4332.08
                             4352.97  4355.26  4356.59  4372.05  4375.94
                             4381.60  4390.76  4410.20  4425.26  4442.67
                             4473.70  4484.04  4498.61

 Zero-point correction=                           0.270524 (Hartree/Particle)
 Thermal correction to Energy=                    0.284116
 Thermal correction to Enthalpy=                  0.285060
 Thermal correction to Gibbs Free Energy=         0.228502
 Sum of electronic and zero-point Energies=           -484.122865
 Sum of electronic and thermal Energies=              -484.109273
 Sum of electronic and thermal Enthalpies=            -484.108329
 Sum of electronic and thermal Free Energies=         -484.164887

                     E (Thermal)             CV                S
                      KCal/Mol        Cal/Mol-Kelvin    Cal/Mol-Kelvin
 Total                  178.285             47.779            119.036
 Electronic               0.000              0.000              0.000
 Translational            0.889              2.981             41.065
 Rotational               0.889              2.981             31.412
 Vibrational            176.508             41.818             46.558
 Vibration     1          0.594              1.983              5.703
 Vibration     2          0.594              1.981              5.325
 Vibration     3          0.596              1.975              4.612
 Vibration     4          0.598              1.968              4.128
 Vibration     5          0.603              1.951              3.512
 Vibration     6          0.611              1.925              2.974
 Vibration     7          0.616              1.909              2.751
 Vibration     8          0.621              1.892              2.559
 Vibration     9          0.639              1.836              2.107
 Vibration    10          0.648              1.808              1.945
 Vibration    11          0.668              1.748              1.669
 Vibration    12          0.681              1.707              1.522
 Vibration    13          0.737              1.548              1.109
 Vibration    14          0.750              1.511              1.037
 Vibration    15          0.777              1.441              0.915
 Vibration    16          0.812              1.353              0.786
 Vibration    17          0.885              1.184              0.588
 Vibration    18          0.925              1.099              0.507

 Optimization completed on the basis of negligible forces.
    -- Stationary point found.
 Normal termination of Gaussian 16 at Tue Jun  1 11:20:09 2021.
