 Gaussian 16, Revision A.03,
 Gaussian 16:  ES64L-G16RevA.03 25-Dec-2016

 -----------------------------
 # opt freq b3lyp/6-31g(2df,p)
 -----------------------------

 -------------------
 Title Card Required
 -------------------
 Symbolic Z-matrix:
 Charge =  0 Multiplicity = 1

 SCF Done:  E(RB3LYP) =  -401.855863064     A.U. after   12 cycles
 SCF Done:  E(RB3LYP) =  -401.869817959     A.U. after   11 cycles
 SCF Done:  E(RB3LYP) =  -401.871863193     A.U. after   10 cycles
 SCF Done:  E(RB3LYP) =  -401.872446759     A.U. after   10 cycles
 SCF Done:  E(RB3LYP) =  -401.872628156     A.U. after   10 cycles
 SCF Done:  E(RB3LYP) =  -401.872644296     A.U. after    8 cycles
 SCF Done:  E(RB3LYP) =  -401.872646604     A.U. after    7 cycles
 SCF Done:  E(RB3LYP) =  -401.872647139     A.U. after    7 cycles
 SCF Done:  E(RB3LYP) =  -401.872647266     A.U. after    6 cycles
 SCF Done:  E(RB3LYP) =  -401.872647310     A.U. after    6 cycles
 Optimization completed.
    -- Stationary point found.
 Normal termination of Gaussian 16 at Tue Jun  1 04:27:42 2021.

 ----------------------------------------------------------------------
 #N Geom=AllCheck Guess=TCheck SCRF=Check GenChk RB3LYP/6-31G(2df,p) Fr
 eq
 ----------------------------------------------------------------------

 Structure from the checkpoint file:  "CCNpNpC1CCN1C.chk"
 -------------------
 Title Card Required
 -------------------
 Charge =  0 Multiplicity = 1

                         Standard orientation:
 ---------------------------------------------------------------------
 Center     Atomic      Atomic             Coordinates (Angstroms)
 Number     Number       Type             X           Y           Z
 ---------------------------------------------------------------------
      1          6           0       -3.327683   -0.231026   -0.171310
      2          6           0       -1.977564   -0.391782    0.526864
      3          7           0       -0.862670    0.124998   -0.266114
      4          7           0       -0.899228    1.596952   -0.228628
      5          6           0        0.399301   -0.267449    0.351660
      6          6           0        0.877744   -1.695377   -0.001918
      7          6           0        2.224099   -1.039097   -0.389702
      8          7           0        1.587516    0.294384   -0.314582
      9          6           0        2.325919    1.342647    0.364089
     10          1           0       -4.110768   -0.737987    0.400878
     11          1           0       -3.295308   -0.663048   -1.175802
     12          1           0       -3.625544    0.819166   -0.257458
     13          1           0       -1.782116   -1.458851    0.682086
     14          1           0       -2.008422    0.086638    1.522735
     15          1           0       -1.764742    1.842951   -0.707454
     16          1           0       -0.177816    1.850534   -0.905224
     17          1           0        0.395610   -0.052775    1.439771
     18          1           0        0.327473   -2.104446   -0.850070
     19          1           0        0.907144   -2.421343    0.810686
     20          1           0        2.648606   -1.286031   -1.368525
     21          1           0        3.001893   -1.185112    0.375127
     22          1           0        3.189524    1.638050   -0.241722
     23          1           0        2.698503    1.032637    1.358523
     24          1           0        1.685744    2.217788    0.503618
 ---------------------------------------------------------------------

 SCF Done:  E(RB3LYP) =  -401.872647310     A.U. after    1 cycles

 The electronic state is 1-A.
 Alpha  occ. eigenvalues --  -14.33209 -14.32625 -14.31330 -10.22540 -10.20353
 Alpha  occ. eigenvalues --  -10.20036 -10.19417 -10.17922 -10.17381  -0.96796
 Alpha  occ. eigenvalues --   -0.91980  -0.79670  -0.75489  -0.72665  -0.65037
 Alpha  occ. eigenvalues --   -0.64069  -0.58716  -0.53675  -0.50846  -0.48796
 Alpha  occ. eigenvalues --   -0.47219  -0.45346  -0.43903  -0.41109  -0.40812
 Alpha  occ. eigenvalues --   -0.40135  -0.38464  -0.36837  -0.36031  -0.34334
 Alpha  occ. eigenvalues --   -0.34126  -0.32691  -0.31879  -0.29930  -0.21756
 Alpha  occ. eigenvalues --   -0.18649
 Alpha virt. eigenvalues --    0.07958   0.09844   0.10240   0.11707   0.13350
 Alpha virt. eigenvalues --    0.13594   0.14498   0.14851   0.16043   0.16813
 Alpha virt. eigenvalues --    0.17266   0.18006   0.18438   0.19149   0.19339

 Mulliken charges:
               1
     1  C   -0.402456
     2  C   -0.085377
     3  N   -0.118573
     4  N   -0.490351
     5  C    0.137483
     6  C   -0.266131
     7  C   -0.166327
     8  N   -0.090302
     9  C   -0.333329
    10  H    0.115574
    11  H    0.124033
    12  H    0.116264
    13  H    0.103292
    14  H    0.083922
    15  H    0.235858
    16  H    0.248784
    17  H    0.039706
    18  H    0.114404
    19  H    0.103660
    20  H    0.103121
    21  H    0.087174
    22  H    0.115755
    23  H    0.091138
    24  H    0.132675
 Sum of Mulliken charges =  -0.00000

 Dipole moment (field-independent basis, Debye):
    X=             -0.0044    Y=             -0.5644    Z=              0.0778  Tot=              0.5697
 Quadrupole moment (field-independent basis, Debye-Ang):
   XX=            -53.3244   YY=            -55.6894   ZZ=            -58.1766
   XY=             -0.2738   XZ=              0.9582   YZ=             -2.7423

  Exact polarizability: 104.801   0.305  86.883  -0.281  -1.117  73.051
 Approx polarizability: 127.199  -0.740 123.529  -1.000  -2.813 113.933

                      1                      2                      3
                      A                      A                      A
 Frequencies --     65.0506                89.1619               107.0584
 Red. masses --      3.1253                 2.0025                 1.8550
 Frc consts  --      0.0078                 0.0094                 0.0125
 IR Inten    --      2.2322                 2.8408                 4.4130

                      4                      5                      6
                      A                      A                      A
 Frequencies --    153.2955               210.4115               225.6857
 Red. masses --      2.5825                 1.1423                 1.5834
 Frc consts  --      0.0358                 0.0298                 0.0475
 IR Inten    --      1.6899                 1.2983                32.7961

                      7                      8                      9
                      A                      A                      A
 Frequencies --    229.5613               284.1039               304.9762
 Red. masses --      1.1725                 1.7596                 2.6384
 Frc consts  --      0.0364                 0.0837                 0.1446
 IR Inten    --      9.2287                21.7445                 2.2931

                     10                     11                     12
                      A                      A                      A
 Frequencies --    317.6958               375.2732               428.3257
 Red. masses --      2.4037                 2.8176                 3.1098
 Frc consts  --      0.1429                 0.2338                 0.3361
 IR Inten    --      2.9847                 5.0468                 7.9383

                     13                     14                     15
                      A                      A                      A
 Frequencies --    478.8656               543.9568               672.2248
 Red. masses --      3.1783                 2.6840                 2.6359
 Frc consts  --      0.4294                 0.4679                 0.7018
 IR Inten    --      4.9384                 0.0910                 2.1044

                     16                     17                     18
                      A                      A                      A
 Frequencies --    786.8476               798.3290               826.1234
 Red. masses --      1.9142                 1.2982                 1.4542
 Frc consts  --      0.6982                 0.4875                 0.5847
 IR Inten    --     11.3072                 2.6508                 6.1383

                     19                     20                     21
                      A                      A                      A
 Frequencies --    884.3650               944.4627               962.4305
 Red. masses --      2.3698                 2.8182                 2.4748
 Frc consts  --      1.0920                 1.4811                 1.3506
 IR Inten    --      2.5356                10.5021                 1.8711

                     22                     23                     24
                      A                      A                      A
 Frequencies --    974.7919              1013.8888              1066.6616
 Red. masses --      2.4417                 2.1362                 2.6022
 Frc consts  --      1.3670                 1.2938                 1.7444
 IR Inten    --     16.6481                23.0168                 8.2417

                     25                     26                     27
                      A                      A                      A
 Frequencies --   1082.9761              1106.3634              1118.3325
 Red. masses --      2.1697                 2.0504                 1.6978
 Frc consts  --      1.4993                 1.4787                 1.2511
 IR Inten    --     15.2953                43.4323                28.4780

                     28                     29                     30
                      A                      A                      A
 Frequencies --   1141.0407              1169.3987              1177.2326
 Red. masses --      1.2924                 1.6165                 1.6605
 Frc consts  --      0.9914                 1.3024                 1.3558
 IR Inten    --      2.8401                11.8115                10.4667

                     31                     32                     33
                      A                      A                      A
 Frequencies --   1203.4823              1208.3710              1231.5369
 Red. masses --      2.2287                 1.3645                 2.7433
 Frc consts  --      1.9019                 1.1739                 2.4514
 IR Inten    --     44.2006                 5.7795                17.4019

                     34                     35                     36
                      A                      A                      A
 Frequencies --   1240.7262              1264.0448              1297.5862
 Red. masses --      1.3953                 1.5763                 1.5142
 Frc consts  --      1.2655                 1.4839                 1.5022
 IR Inten    --      2.4495                 7.0794                20.3577

                     37                     38                     39
                      A                      A                      A
 Frequencies --   1315.2925              1347.7124              1359.0831
 Red. masses --      1.2208                 1.6609                 1.2347
 Frc consts  --      1.2444                 1.7774                 1.3437
 IR Inten    --      6.2695                14.4090                45.7247

                     40                     41                     42
                      A                      A                      A
 Frequencies --   1397.8472              1404.0568              1424.8320
 Red. masses --      1.3404                 1.3539                 1.4550
 Frc consts  --      1.5432                 1.5726                 1.7403
 IR Inten    --     20.3669                 4.0394                 8.4243

                     43                     44                     45
                      A                      A                      A
 Frequencies --   1451.2251              1477.1491              1480.8964
 Red. masses --      1.1665                 1.0808                 1.0996
 Frc consts  --      1.4475                 1.3895                 1.4208
 IR Inten    --      0.5665                 0.7445                 2.3010

                     46                     47                     48
                      A                      A                      A
 Frequencies --   1490.0467              1493.9854              1504.6294
 Red. masses --      1.0566                 1.0467                 1.0481
 Frc consts  --      1.3821                 1.3765                 1.3980
 IR Inten    --     10.8199                 3.3422                 3.0339

                     49                     50                     51
                      A                      A                      A
 Frequencies --   1507.9550              1525.0868              1647.0118
 Red. masses --      1.0584                 1.1132                 1.0675
 Frc consts  --      1.4181                 1.5256                 1.7061
 IR Inten    --      2.9734                 2.6839                54.3892

                     52                     53                     54
                      A                      A                      A
 Frequencies --   2882.8175              2930.9135              2940.9601
 Red. masses --      1.0808                 1.0597                 1.0703
 Frc consts  --      5.2920                 5.3633                 5.4542
 IR Inten    --     47.8616                78.7742                74.6531

                     55                     56                     57
                      A                      A                      A
 Frequencies --   2985.5805              3037.2816              3056.4260
 Red. masses --      1.0667                 1.0357                 1.0968
 Frc consts  --      5.6018                 5.6293                 6.0366
 IR Inten    --     76.9858                21.3280                43.1264

                     58                     59                     60
                      A                      A                      A
 Frequencies --   3057.5303              3059.2250              3087.1202
 Red. masses --      1.0883                 1.0738                 1.0588
 Frc consts  --      5.9945                 5.9212                 5.9450
 IR Inten    --      9.8146                45.6146                21.5136

                     61                     62                     63
                      A                      A                      A
 Frequencies --   3102.6305              3113.9683              3116.6208
 Red. masses --      1.0999                 1.1006                 1.1025
 Frc consts  --      6.2384                 6.2881                 6.3097
 IR Inten    --     37.1658                14.1387                25.5734

                     64                     65                     66
                      A                      A                      A
 Frequencies --   3146.5808              3439.8036              3513.8941
 Red. masses --      1.1093                 1.0512                 1.0895
 Frc consts  --      6.4711                 7.3281                 7.9258
 IR Inten    --     18.1633                 3.3869                 1.4114

 - Thermochemistry -
 -------------------
 Temperature   298.150 Kelvin.  Pressure   1.00000 Atm.
 Atom     1 has atomic number  6 and mass  12.00000

 Molecular mass:   129.12660 amu.
 Principal axes and moments of inertia in atomic units:
                           1         2         3
     Eigenvalues --   598.232481738.231562157.22169
           X            0.99994   0.00929   0.00576
           Y           -0.00928   0.99995  -0.00310
           Z           -0.00579   0.00305   0.99998
 This molecule is an asymmetric top.
 Rotational symmetry number  1.
 Warning -- assumption of classical behavior for rotation
           may cause significant error
 Rotational temperatures (Kelvin)      0.14478     0.04983     0.04015
 Rotational constants (GHZ):           3.01679     1.03826     0.83660
 Zero-point vibrational energy     569917.7 (Joules/Mol)
                                  136.21360 (Kcal/Mol)
 Warning -- explicit consideration of  14 degrees of freedom as
           vibrations may cause significant error
 Vibrational temperatures:     93.59   128.28   154.03   220.56   302.74
          (Kelvin)            324.71   330.29   408.76   438.79   457.09
                              539.93   616.27   688.98   782.63   967.18
                             1132.10  1148.62  1188.61  1272.40  1358.87
                             1384.72  1402.51  1458.76  1534.69  1558.16
                             1591.81  1609.03  1641.70  1682.50  1693.78
                             1731.54  1738.58  1771.91  1785.13  1818.68
                             1866.94  1892.41  1939.06  1955.42  2011.19
                             2020.12  2050.02  2087.99  2125.29  2130.68
                             2143.84  2149.51  2164.83  2169.61  2194.26
                             2369.68  4147.73  4216.93  4231.39  4295.58
                             4369.97  4397.52  4399.10  4401.54  4441.68
                             4463.99  4480.31  4484.12  4527.23  4949.11
                             5055.71

 Zero-point correction=                           0.217070 (Hartree/Particle)
 Thermal correction to Energy=                    0.227625
 Thermal correction to Enthalpy=                  0.228569
 Thermal correction to Gibbs Free Energy=         0.181430
 Sum of electronic and zero-point Energies=           -401.655577
 Sum of electronic and thermal Energies=              -401.645022
 Sum of electronic and thermal Enthalpies=            -401.644078
 Sum of electronic and thermal Free Energies=         -401.691217

                     E (Thermal)             CV                S
                      KCal/Mol        Cal/Mol-Kelvin    Cal/Mol-Kelvin
 Total                  142.837             38.795             99.213
 Electronic               0.000              0.000              0.000
 Translational            0.889              2.981             40.480
 Rotational               0.889              2.981             29.196
 Vibrational            141.059             32.834             29.537
 Vibration     1          0.597              1.971              4.298
 Vibration     2          0.602              1.957              3.678
 Vibration     3          0.606              1.944              3.322
 Vibration     4          0.619              1.899              2.631
 Vibration     5          0.643              1.825              2.040
 Vibration     6          0.650              1.802              1.913
 Vibration     7          0.652              1.796              1.882
 Vibration     8          0.683              1.703              1.509
 Vibration     9          0.696              1.664              1.389
 Vibration    10          0.704              1.640              1.322
 Vibration    11          0.746              1.523              1.058
 Vibration    12          0.790              1.409              0.864
 Vibration    13          0.835              1.297              0.713
 Vibration    14          0.899              1.153              0.557

                           ! Non-Optimized Parameters !
 Normal termination of Gaussian 16 at Tue Jun  1 05:05:51 2021.
