 Gaussian 16, Revision A.03,
 Gaussian 16:  ES64L-G16RevA.03 25-Dec-2016

 -----------------------------
 # opt freq b3lyp/6-31g(2df,p)
 -----------------------------

 -------------------
 Title Card Required
 -------------------
 Symbolic Z-matrix:
 Charge =  0 Multiplicity = 1

 SCF Done:  E(RB3LYP) =  -500.411743733     A.U. after   13 cycles
 SCF Done:  E(RB3LYP) =  -500.417539371     A.U. after   12 cycles
 SCF Done:  E(RB3LYP) =  -500.418506928     A.U. after   11 cycles
 SCF Done:  E(RB3LYP) =  -500.417933490     A.U. after   12 cycles
 SCF Done:  E(RB3LYP) =  -500.418683537     A.U. after   11 cycles
 SCF Done:  E(RB3LYP) =  -500.418817483     A.U. after   10 cycles
 SCF Done:  E(RB3LYP) =  -500.418893871     A.U. after   12 cycles
 SCF Done:  E(RB3LYP) =  -500.418936688     A.U. after   12 cycles
 SCF Done:  E(RB3LYP) =  -500.418945335     A.U. after   10 cycles
 SCF Done:  E(RB3LYP) =  -500.418980399     A.U. after   11 cycles
 SCF Done:  E(RB3LYP) =  -500.426331523     A.U. after   11 cycles
 SCF Done:  E(RB3LYP) =  -500.426572300     A.U. after   13 cycles
 SCF Done:  E(RB3LYP) =  -500.426840598     A.U. after   13 cycles
 SCF Done:  E(RB3LYP) =  -500.427024845     A.U. after   13 cycles
 SCF Done:  E(RB3LYP) =  -500.427065251     A.U. after   11 cycles
 SCF Done:  E(RB3LYP) =  -500.427073873     A.U. after   10 cycles
 SCF Done:  E(RB3LYP) =  -500.427075143     A.U. after   10 cycles
 SCF Done:  E(RB3LYP) =  -500.427075755     A.U. after   10 cycles
 SCF Done:  E(RB3LYP) =  -500.427075852     A.U. after    7 cycles
 Optimization completed.
    -- Stationary point found.
 Normal termination of Gaussian 16 at Tue Jun  1 16:18:36 2021.

 ----------------------------------------------------------------------
 #N Geom=AllCheck Guess=TCheck SCRF=Check GenChk RB3LYP/6-31G(2df,p) Fr
 eq
 ----------------------------------------------------------------------

 Structure from the checkpoint file:  "CCNpCpCNCCCCdO.chk"
 -------------------
 Title Card Required
 -------------------
 Charge =  0 Multiplicity = 1

                         Standard orientation:
 ---------------------------------------------------------------------
 Center     Atomic      Atomic             Coordinates (Angstroms)
 Number     Number       Type             X           Y           Z
 ---------------------------------------------------------------------
      1          6           0       -4.009184   -1.712909    0.076492
      2          6           0       -3.485212   -0.372449    0.593124
      3          7           0       -2.289676    0.087784   -0.105853
      4          6           0       -2.537490    0.433376   -1.499570
      5          6           0       -1.610888    1.165602    0.600446
      6          7           0       -0.255061    1.327155    0.102280
      7          6           0        0.673559    0.298073    0.556987
      8          6           0        2.028585    0.434028   -0.136960
      9          6           0        3.031187   -0.642750    0.312188
     10          6           0        4.323068   -0.562767   -0.467091
     11          8           0        5.416929   -0.420419    0.015135
     12          1           0       -4.828944   -2.063615    0.711101
     13          1           0       -3.213912   -2.464357    0.089288
     14          1           0       -4.394439   -1.641165   -0.944454
     15          1           0       -3.224949   -0.481683    1.652376
     16          1           0       -4.298752    0.379717    0.546890
     17          1           0       -2.828710   -0.450837   -2.071770
     18          1           0       -1.616894    0.833896   -1.926941
     19          1           0       -3.335610    1.193403   -1.611152
     20          1           0       -1.641729    0.915520    1.675697
     21          1           0       -2.124342    2.138924    0.477111
     22          1           0        0.089441    2.249412    0.344685
     23          1           0        0.224232   -0.669871    0.311119
     24          1           0        0.816143    0.310653    1.654742
     25          1           0        2.450832    1.426909    0.069008
     26          1           0        1.875613    0.380612   -1.221392
     27          1           0        2.594941   -1.635790    0.128128
     28          1           0        3.261081   -0.565021    1.378898
     29          1           0        4.191962   -0.639144   -1.573101
 ---------------------------------------------------------------------

 SCF Done:  E(RB3LYP) =  -500.427075852     A.U. after    1 cycles

 The electronic state is 1-A.
 Alpha  occ. eigenvalues --  -19.13696 -14.31678 -14.31671 -10.26912 -10.22891
 Alpha  occ. eigenvalues --  -10.20656 -10.20486 -10.19457 -10.19416 -10.19060
 Alpha  occ. eigenvalues --  -10.17364  -1.04368  -0.93690  -0.88382  -0.79709
 Alpha  occ. eigenvalues --   -0.74580  -0.71075  -0.68092  -0.62896  -0.60444
 Alpha  occ. eigenvalues --   -0.57444  -0.56661  -0.50209  -0.48684  -0.47751
 Alpha  occ. eigenvalues --   -0.46635  -0.46045  -0.44312  -0.43122  -0.41678
 Alpha  occ. eigenvalues --   -0.40903  -0.40001  -0.39576  -0.37954  -0.36598
 Alpha  occ. eigenvalues --   -0.36264  -0.35404  -0.35113  -0.34333  -0.33975
 Alpha  occ. eigenvalues --   -0.33689  -0.24836  -0.23073  -0.21333
 Alpha virt. eigenvalues --   -0.01851   0.07923   0.09352   0.09897   0.11523
 Alpha virt. eigenvalues --    0.12120   0.12616   0.13662   0.14358   0.15148
 Alpha virt. eigenvalues --    0.16275   0.16468   0.16704   0.17058   0.17557

 Mulliken charges:
               1
     1  C   -0.388090
     2  C   -0.106665
     3  N   -0.036765
     4  C   -0.325703
     5  C   -0.117851
     6  N   -0.290620
     7  C   -0.122236
     8  C   -0.206646
     9  C   -0.270737
    10  C    0.159275
    11  O   -0.237866
    12  H    0.112978
    13  H    0.120721
    14  H    0.120081
    15  H    0.096951
    16  H    0.072733
    17  H    0.115333
    18  H    0.133747
    19  H    0.083533
    20  H    0.077072
    21  H    0.072751
    22  H    0.215028
    23  H    0.119867
    24  H    0.076491
    25  H    0.103768
    26  H    0.113107
    27  H    0.119237
    28  H    0.120721
    29  H    0.069784
 Sum of Mulliken charges =  -0.00000

 Dipole moment (field-independent basis, Debye):
    X=             -2.9430    Y=              0.4097    Z=              0.2151  Tot=              2.9792
 Quadrupole moment (field-independent basis, Debye-Ang):
   XX=            -91.2791   YY=            -66.5816   ZZ=            -68.3354
   XY=              0.6194   XZ=             -2.9220   YZ=              1.7489

  Exact polarizability: 134.610   2.616  94.460   0.738   0.179  96.659
 Approx polarizability: 162.583   3.010 137.574   5.419   0.305 144.321

                      1                      2                      3
                      A                      A                      A
 Frequencies --     30.0673                40.4824                56.0457
 Red. masses --      4.0166                 3.4405                 3.6114
 Frc consts  --      0.0021                 0.0033                 0.0067
 IR Inten    --      1.3885                 2.3659                 3.9213

                      4                      5                      6
                      A                      A                      A
 Frequencies --     66.6245                92.3998               107.2318
 Red. masses --      2.4267                 2.3942                 2.2112
 Frc consts  --      0.0063                 0.0120                 0.0150
 IR Inten    --      1.0851                 1.0198                 0.8731

                      7                      8                      9
                      A                      A                      A
 Frequencies --    147.1686               156.1402               220.7885
 Red. masses --      2.2538                 2.3134                 1.0739
 Frc consts  --      0.0288                 0.0332                 0.0308
 IR Inten    --      1.3897                 0.3732                 0.3426

                     10                     11                     12
                      A                      A                      A
 Frequencies --    229.8062               263.1051               286.5360
 Red. masses --      2.1468                 2.4381                 1.5421
 Frc consts  --      0.0668                 0.0994                 0.0746
 IR Inten    --      2.9634                 2.9867                 4.3106

                     13                     14                     15
                      A                      A                      A
 Frequencies --    332.0523               355.4879               385.4092
 Red. masses --      3.5128                 2.5328                 2.2009
 Frc consts  --      0.2282                 0.1886                 0.1926
 IR Inten    --      5.6617                 1.4157                 4.2205

                     16                     17                     18
                      A                      A                      A
 Frequencies --    407.5886               475.4747               519.6563
 Red. masses --      2.6145                 2.5346                 2.5172
 Frc consts  --      0.2559                 0.3376                 0.4005
 IR Inten    --      0.8639                 1.7576                 6.2852

                     19                     20                     21
                      A                      A                      A
 Frequencies --    574.0450               737.6180               757.0038
 Red. masses --      2.8230                 1.4611                 1.1371
 Frc consts  --      0.5481                 0.4684                 0.3839
 IR Inten    --     22.6205                68.3848                 3.5429

                     22                     23                     24
                      A                      A                      A
 Frequencies --    810.5651               816.2010               840.2851
 Red. masses --      1.1474                 1.6166                 2.2722
 Frc consts  --      0.4442                 0.6345                 0.9453
 IR Inten    --      1.9700                 2.1150                 7.6159

                     25                     26                     27
                      A                      A                      A
 Frequencies --    924.3299               952.9142               974.9477
 Red. masses --      1.5318                 2.3388                 2.2335
 Frc consts  --      0.7711                 1.2513                 1.2508
 IR Inten    --      8.0735                 6.6379                 5.9172

                     28                     29                     30
                      A                      A                      A
 Frequencies --   1000.1114              1052.0195              1058.6976
 Red. masses --      2.7861                 2.4702                 1.9020
 Frc consts  --      1.6419                 1.6108                 1.2561
 IR Inten    --     24.1491                 4.0658                69.4517

                     31                     32                     33
                      A                      A                      A
 Frequencies --   1075.7164              1079.2532              1120.0272
 Red. masses --      2.4169                 1.8960                 2.0736
 Frc consts  --      1.6478                 1.3012                 1.5326
 IR Inten    --      4.8552                 6.4990                 1.0144

                     34                     35                     36
                      A                      A                      A
 Frequencies --   1124.0642              1151.2212              1157.3943
 Red. masses --      1.5705                 1.7584                 3.3784
 Frc consts  --      1.1691                 1.3731                 2.6664
 IR Inten    --      2.9551                11.6607                95.0633

                     37                     38                     39
                      A                      A                      A
 Frequencies --   1172.4528              1209.9182              1234.4120
 Red. masses --      1.6870                 1.4531                 2.0508
 Frc consts  --      1.3664                 1.2533                 1.8411
 IR Inten    --      3.1134                49.9038                25.2824

                     40                     41                     42
                      A                      A                      A
 Frequencies --   1254.7459              1265.6047              1288.0376
 Red. masses --      1.7228                 1.5972                 1.2159
 Frc consts  --      1.5980                 1.5073                 1.1885
 IR Inten    --     17.3089                 4.7536                 2.5578

                     43                     44                     45
                      A                      A                      A
 Frequencies --   1321.5996              1322.5197              1342.1382
 Red. masses --      1.2219                 1.1538                 1.2951
 Frc consts  --      1.2574                 1.1890                 1.3745
 IR Inten    --      0.8049                 9.5440                12.0494

                     46                     47                     48
                      A                      A                      A
 Frequencies --   1356.1783              1391.7887              1404.4347
 Red. masses --      1.3752                 1.3293                 1.3214
 Frc consts  --      1.4902                 1.5171                 1.5357
 IR Inten    --     11.6294                45.4586                28.6330

                     49                     50                     51
                      A                      A                      A
 Frequencies --   1407.5549              1429.6358              1430.4885
 Red. masses --      1.4140                 1.2119                 1.2013
 Frc consts  --      1.6506                 1.4594                 1.4484
 IR Inten    --      8.2545                12.7770                 1.1029

                     52                     53                     54
                      A                      A                      A
 Frequencies --   1455.7533              1465.2329              1487.9861
 Red. masses --      1.2860                 1.0873                 1.0756
 Frc consts  --      1.6057                 1.3753                 1.4031
 IR Inten    --     19.3719                 2.2805                 2.5297

                     55                     56                     57
                      A                      A                      A
 Frequencies --   1489.1327              1492.1376              1496.0108
 Red. masses --      1.0733                 1.1466                 1.1007
 Frc consts  --      1.4024                 1.5041                 1.4514
 IR Inten    --      8.1050                 6.0928                 1.5722

                     58                     59                     60
                      A                      A                      A
 Frequencies --   1499.8170              1507.2642              1511.1074
 Red. masses --      1.0591                 1.0982                 1.0465
 Frc consts  --      1.4036                 1.4699                 1.4080
 IR Inten    --      4.9964                 4.9593                 5.7934

                     61                     62                     63
                      A                      A                      A
 Frequencies --   1519.0684              1522.6831              1836.4666
 Red. masses --      1.0914                 1.1232                10.0843
 Frc consts  --      1.4838                 1.5343                20.0384
 IR Inten    --      3.0230                 0.8051               203.8862

                     64                     65                     66
                      A                      A                      A
 Frequencies --   2847.5057              2895.1394              2907.8502
 Red. masses --      1.0815                 1.0704                 1.0628
 Frc consts  --      5.1665                 5.2863                 5.2947
 IR Inten    --    110.6582                32.7095                77.0113

                     67                     68                     69
                      A                      A                      A
 Frequencies --   2916.4054              2920.6468              2948.6451
 Red. masses --      1.0719                 1.0628                 1.0978
 Frc consts  --      5.3718                 5.3416                 5.6234
 IR Inten    --    100.7165               124.0413                62.7471

                     70                     71                     72
                      A                      A                      A
 Frequencies --   3007.1813              3019.6662              3041.2008
 Red. masses --      1.0649                 1.0626                 1.0354
 Frc consts  --      5.6737                 5.7090                 5.6422
 IR Inten    --      1.7184                31.7938                19.3212

                     73                     74                     75
                      A                      A                      A
 Frequencies --   3046.2647              3058.0128              3076.4192
 Red. masses --      1.0854                 1.0915                 1.0915
 Frc consts  --      5.9345                 6.0141                 6.0865
 IR Inten    --     25.1065                 8.3177                18.3325

                     76                     77                     78
                      A                      A                      A
 Frequencies --   3085.3519              3097.9090              3110.9407
 Red. masses --      1.0713                 1.0974                 1.1004
 Frc consts  --      6.0087                 6.2052                 6.2746
 IR Inten    --     26.8595                28.9483                35.4986

                     79                     80                     81
                      A                      A                      A
 Frequencies --   3116.8257              3137.5529              3534.0832
 Red. masses --      1.1015                 1.1007                 1.0740
 Frc consts  --      6.3048                 6.3840                 7.9033
 IR Inten    --     31.2280                 9.8017                 0.0573

 - Thermochemistry -
 -------------------
 Temperature   298.150 Kelvin.  Pressure   1.00000 Atm.
 Atom     1 has atomic number  6 and mass  12.00000

 Molecular mass:   158.14191 amu.
 Principal axes and moments of inertia in atomic units:
                           1         2         3
     Eigenvalues --   708.424965737.008335939.98992
           X            0.99997   0.00756   0.00063
           Y           -0.00756   0.99997  -0.00048
           Z           -0.00063   0.00048   1.00000
 This molecule is an asymmetric top.
 Rotational symmetry number  1.
 Warning -- assumption of classical behavior for rotation
           may cause significant error
 Rotational temperatures (Kelvin)      0.12226     0.01510     0.01458
 Rotational constants (GHZ):           2.54754     0.31458     0.30383
 Zero-point vibrational energy     683428.1 (Joules/Mol)
                                  163.34323 (Kcal/Mol)
 Warning -- explicit consideration of  19 degrees of freedom as
           vibrations may cause significant error
 Vibrational temperatures:     43.26    58.25    80.64    95.86   132.94
          (Kelvin)            154.28   211.74   224.65   317.67   330.64
                              378.55   412.26   477.75   511.47   554.52
                              586.43   684.10   747.67   825.92  1061.27
                             1089.16  1166.22  1174.33  1208.98  1329.90
                             1371.03  1402.73  1438.94  1513.62  1523.23
                             1547.72  1552.80  1611.47  1617.28  1656.35
                             1665.23  1686.90  1740.80  1776.04  1805.30
                             1820.92  1853.20  1901.49  1902.81  1931.04
                             1951.24  2002.47  2020.67  2025.16  2056.93
                             2058.15  2094.50  2108.14  2140.88  2142.53
                             2146.85  2152.43  2157.90  2168.62  2174.15
                             2185.60  2190.80  2642.27  4096.93  4165.46
                             4183.75  4196.06  4202.16  4242.44  4326.66
                             4344.63  4375.61  4382.90  4399.80  4426.28
                             4439.13  4457.20  4475.95  4484.42  4514.24
                             5084.76

 Zero-point correction=                           0.260304 (Hartree/Particle)
 Thermal correction to Energy=                    0.274179
 Thermal correction to Enthalpy=                  0.275123
 Thermal correction to Gibbs Free Energy=         0.217886
 Sum of electronic and zero-point Energies=           -500.166772
 Sum of electronic and thermal Energies=              -500.152897
 Sum of electronic and thermal Enthalpies=            -500.151953
 Sum of electronic and thermal Free Energies=         -500.209190

                     E (Thermal)             CV                S
                      KCal/Mol        Cal/Mol-Kelvin    Cal/Mol-Kelvin
 Total                  172.050             48.587            120.466
 Electronic               0.000              0.000              0.000
 Translational            0.889              2.981             41.084
 Rotational               0.889              2.981             31.557
 Vibrational            170.272             42.626             47.825
 Vibration     1          0.594              1.984              5.825
 Vibration     2          0.594              1.981              5.235
 Vibration     3          0.596              1.975              4.592
 Vibration     4          0.598              1.970              4.251
 Vibration     5          0.602              1.955              3.609
 Vibration     6          0.606              1.943              3.318
 Vibration     7          0.617              1.906              2.709
 Vibration     8          0.620              1.896              2.596
 Vibration     9          0.648              1.809              1.953
 Vibration    10          0.652              1.795              1.880
 Vibration    11          0.670              1.740              1.641
 Vibration    12          0.684              1.699              1.494
 Vibration    13          0.714              1.611              1.250
 Vibration    14          0.731              1.564              1.142
 Vibration    15          0.754              1.501              1.018
 Vibration    16          0.772              1.454              0.935
 Vibration    17          0.832              1.304              0.722
 Vibration    18          0.875              1.206              0.611
 Vibration    19          0.930              1.087              0.497

 Optimization completed.
    -- Stationary point found.
 Normal termination of Gaussian 16 at Tue Jun  1 17:16:59 2021.
