 Gaussian 16, Revision A.03,
 Gaussian 16:  ES64L-G16RevA.03 25-Dec-2016

 -----------------------------
 # opt freq b3lyp/6-31g(2df,p)
 -----------------------------

 -------------------
 Title Card Required
 -------------------
 Symbolic Z-matrix:
 Charge =  0 Multiplicity = 1

 SCF Done:  E(RB3LYP) =  -379.779630108     A.U. after   12 cycles
 SCF Done:  E(RB3LYP) =  -379.788410474     A.U. after   11 cycles
 SCF Done:  E(RB3LYP) =  -379.792597490     A.U. after   11 cycles
 SCF Done:  E(RB3LYP) =  -379.792361772     A.U. after   12 cycles
 SCF Done:  E(RB3LYP) =  -379.794530888     A.U. after   11 cycles
 SCF Done:  E(RB3LYP) =  -379.795691750     A.U. after   11 cycles
 SCF Done:  E(RB3LYP) =  -379.796361473     A.U. after   11 cycles
 SCF Done:  E(RB3LYP) =  -379.797021398     A.U. after   11 cycles
 SCF Done:  E(RB3LYP) =  -379.799305162     A.U. after   11 cycles
 SCF Done:  E(RB3LYP) =  -379.801187613     A.U. after   11 cycles
 SCF Done:  E(RB3LYP) =  -379.808328614     A.U. after   11 cycles
 SCF Done:  E(RB3LYP) =  -379.809240671     A.U. after   11 cycles
 SCF Done:  E(RB3LYP) =  -379.809670831     A.U. after   11 cycles
 SCF Done:  E(RB3LYP) =  -379.809826690     A.U. after    9 cycles
 SCF Done:  E(RB3LYP) =  -379.809841797     A.U. after    8 cycles
 SCF Done:  E(RB3LYP) =  -379.809849374     A.U. after    8 cycles
 SCF Done:  E(RB3LYP) =  -379.809852305     A.U. after    8 cycles
 SCF Done:  E(RB3LYP) =  -379.809853480     A.U. after    7 cycles
 SCF Done:  E(RB3LYP) =  -379.809853932     A.U. after    7 cycles
 Optimization completed.
    -- Stationary point found.
 Normal termination of Gaussian 16 at Tue Jun  1 07:52:18 2021.

 ----------------------------------------------------------------------
 #N Geom=AllCheck Guess=TCheck SCRF=Check GenChk RB3LYP/6-31G(2df,p) Fr
 eq
 ----------------------------------------------------------------------

 Structure from the checkpoint file:  "CCNpCpNpNpCN.chk"
 -------------------
 Title Card Required
 -------------------
 Charge =  0 Multiplicity = 1

                         Standard orientation:
 ---------------------------------------------------------------------
 Center     Atomic      Atomic             Coordinates (Angstroms)
 Number     Number       Type             X           Y           Z
 ---------------------------------------------------------------------
      1          6           0       -2.733801   -1.076289   -0.045091
      2          6           0       -1.446960   -0.519555    0.565313
      3          7           0       -0.645391    0.233166   -0.411990
      4          6           0       -1.202263    1.546650   -0.712147
      5          7           0        0.718740    0.381377   -0.058396
      6          7           0        0.904828    0.856921    1.278733
      7          6           0        1.492734   -0.809982   -0.377194
      8          7           0        2.908153   -0.462145   -0.331530
      9          1           0       -3.248284   -1.715970    0.679236
     10          1           0       -2.510574   -1.669520   -0.936733
     11          1           0       -3.430271   -0.283094   -0.331584
     12          1           0       -0.837042   -1.360978    0.911864
     13          1           0       -1.681184    0.092577    1.451987
     14          1           0       -2.217368    1.435521   -1.102309
     15          1           0       -0.585441    2.021398   -1.477932
     16          1           0       -1.232628    2.201953    0.172703
     17          1           0        1.821154    1.294197    1.289480
     18          1           0        0.975040    0.062101    1.923213
     19          1           0        1.123167   -1.158711   -1.350615
     20          1           0        1.338351   -1.625422    0.356399
     21          1           0        3.146228    0.097648   -1.144738
     22          1           0        3.476292   -1.301877   -0.363976
 ---------------------------------------------------------------------

 SCF Done:  E(RB3LYP) =  -379.809853932     A.U. after    1 cycles

 The electronic state is 1-A.
 Alpha  occ. eigenvalues --  -14.35539 -14.33197 -14.32396 -14.31126 -10.22528
 Alpha  occ. eigenvalues --  -10.19672 -10.18231 -10.16997  -0.99926  -0.88617
 Alpha  occ. eigenvalues --   -0.86068  -0.76031  -0.72964  -0.65570  -0.62364
 Alpha  occ. eigenvalues --   -0.56139  -0.51064  -0.49772  -0.47743  -0.45869
 Alpha  occ. eigenvalues --   -0.44296  -0.43770  -0.41266  -0.39492  -0.38705
 Alpha  occ. eigenvalues --   -0.37851  -0.35747  -0.35529  -0.33199  -0.25112
 Alpha  occ. eigenvalues --   -0.24451  -0.22228  -0.21326
 Alpha virt. eigenvalues --    0.07975   0.09175   0.10950   0.12431   0.14479
 Alpha virt. eigenvalues --    0.14876   0.15065   0.16616   0.16863   0.17546
 Alpha virt. eigenvalues --    0.17865   0.18942   0.19233   0.20308   0.21542

 Mulliken charges:
               1
     1  C   -0.386342
     2  C   -0.111428
     3  N   -0.043510
     4  C   -0.299877
     5  N   -0.072082
     6  N   -0.455497
     7  C   -0.084150
     8  N   -0.507855
     9  H    0.110527
    10  H    0.120396
    11  H    0.120367
    12  H    0.093219
    13  H    0.094893
    14  H    0.110415
    15  H    0.115709
    16  H    0.109523
    17  H    0.249088
    18  H    0.209800
    19  H    0.098425
    20  H    0.071165
    21  H    0.229722
    22  H    0.227494
 Sum of Mulliken charges =   0.00000

 Dipole moment (field-independent basis, Debye):
    X=              0.8666    Y=             -1.4804    Z=             -0.2418  Tot=              1.7323
 Quadrupole moment (field-independent basis, Debye-Ang):
   XX=            -46.5016   YY=            -50.3504   ZZ=            -50.4573
   XY=             -2.2628   XZ=             -2.1403   YZ=             -1.6522

  Exact polarizability:  89.910  -0.292  72.707   0.741  -1.353  68.332
 Approx polarizability: 110.040  -0.418 103.612   1.428  -1.984 102.438

                      1                      2                      3
                      A                      A                      A
 Frequencies --     68.1674               110.1441               117.2857
 Red. masses --      2.1820                 2.4634                 2.5125
 Frc consts  --      0.0060                 0.0176                 0.0204
 IR Inten    --      0.1099                 1.9530                 2.4863

                      4                      5                      6
                      A                      A                      A
 Frequencies --    189.3519               211.5695               237.5073
 Red. masses --      1.5596                 1.1146                 2.8152
 Frc consts  --      0.0329                 0.0294                 0.0936
 IR Inten    --      2.5080                 0.4983                 5.4151

                      7                      8                      9
                      A                      A                      A
 Frequencies --    259.0841               260.1375               288.2691
 Red. masses --      1.1375                 1.3159                 1.3293
 Frc consts  --      0.0450                 0.0525                 0.0651
 IR Inten    --     46.0099                 8.7815                22.1547

                     10                     11                     12
                      A                      A                      A
 Frequencies --    340.6449               356.4424               376.8510
 Red. masses --      2.4893                 2.4543                 2.8315
 Frc consts  --      0.1702                 0.1837                 0.2369
 IR Inten    --      2.6801                 2.0834                 9.6524

                     13                     14                     15
                      A                      A                      A
 Frequencies --    494.9683               509.1493               635.8986
 Red. masses --      2.8763                 3.1848                 3.4497
 Frc consts  --      0.4152                 0.4864                 0.8219
 IR Inten    --      3.7142                 5.9721                18.8150

                     16                     17                     18
                      A                      A                      A
 Frequencies --    757.0892               809.8470               840.4188
 Red. masses --      3.2999                 1.1445                 2.1544
 Frc consts  --      1.1144                 0.4422                 0.8965
 IR Inten    --     18.6968                 4.8821                49.1172

                     19                     20                     21
                      A                      A                      A
 Frequencies --    866.7468               931.4530              1007.4887
 Red. masses --      1.6228                 2.0995                 2.0871
 Frc consts  --      0.7183                 1.0732                 1.2482
 IR Inten    --    126.1864                33.9144                 3.0114

                     22                     23                     24
                      A                      A                      A
 Frequencies --   1025.7372              1060.9420              1082.8007
 Red. masses --      1.3569                 2.5000                 2.7834
 Frc consts  --      0.8411                 1.6580                 1.9227
 IR Inten    --      8.2787                13.1339                25.7313

                     25                     26                     27
                      A                      A                      A
 Frequencies --   1112.4760              1134.5990              1157.3732
 Red. masses --      1.4391                 1.9786                 1.5917
 Frc consts  --      1.0494                 1.5007                 1.2562
 IR Inten    --      0.6550                 2.2252                30.8117

                     28                     29                     30
                      A                      A                      A
 Frequencies --   1184.6140              1219.0066              1244.5307
 Red. masses --      2.7817                 1.6987                 2.3972
 Frc consts  --      2.3000                 1.4872                 2.1876
 IR Inten    --     38.1742                 7.8790                 3.1476

                     31                     32                     33
                      A                      A                      A
 Frequencies --   1265.8814              1319.1525              1328.7944
 Red. masses --      1.7659                 1.2716                 1.3127
 Frc consts  --      1.6673                 1.3038                 1.3657
 IR Inten    --     16.8259                 3.0629                14.6862

                     34                     35                     36
                      A                      A                      A
 Frequencies --   1335.3305              1389.0157              1409.1919
 Red. masses --      1.2649                 1.2868                 1.2952
 Frc consts  --      1.3289                 1.4627                 1.5154
 IR Inten    --      0.1392                 4.5850                 6.7053

                     37                     38                     39
                      A                      A                      A
 Frequencies --   1434.5435              1443.9503              1479.2288
 Red. masses --      1.3218                 1.2093                 1.0511
 Frc consts  --      1.6027                 1.4856                 1.3551
 IR Inten    --     25.4045                 4.2436                 7.0934

                     40                     41                     42
                      A                      A                      A
 Frequencies --   1491.7349              1495.7609              1509.5020
 Red. masses --      1.0510                 1.0469                 1.0461
 Frc consts  --      1.3780                 1.3800                 1.4044
 IR Inten    --      2.1619                 2.3284                 3.5550

                     43                     44                     45
                      A                      A                      A
 Frequencies --   1511.1099              1514.6881              1645.1954
 Red. masses --      1.0841                 1.0846                 1.0984
 Frc consts  --      1.4586                 1.4662                 1.7517
 IR Inten    --      1.5728                 3.3926                27.9493

                     46                     47                     48
                      A                      A                      A
 Frequencies --   1675.2815              2908.8361              2967.7173
 Red. masses --      1.0780                 1.0692                 1.0694
 Frc consts  --      1.7826                 5.3302                 5.5495
 IR Inten    --     15.1154                72.0311                37.0404

                     49                     50                     51
                      A                      A                      A
 Frequencies --   2985.0088              3022.3545              3039.7021
 Red. masses --      1.0522                 1.0891                 1.0354
 Frc consts  --      5.5240                 5.8616                 5.6367
 IR Inten    --     54.0759                44.5929                23.9029

                     52                     53                     54
                      A                      A                      A
 Frequencies --   3057.3237              3085.7271              3107.5596
 Red. masses --      1.0903                 1.0806                 1.0998
 Frc consts  --      6.0044                 6.0622                 6.2577
 IR Inten    --     19.8296                28.4866                40.2221

                     55                     56                     57
                      A                      A                      A
 Frequencies --   3116.6047              3128.8397              3360.8200
 Red. masses --      1.1022                 1.1024                 1.0595
 Frc consts  --      6.3080                 6.3587                 7.0511
 IR Inten    --     28.0331                26.3460                15.3163

                     58                     59                     60
                      A                      A                      A
 Frequencies --   3499.3610              3546.4365              3586.0465
 Red. masses --      1.0494                 1.0798                 1.0926
 Frc consts  --      7.5711                 8.0019                 8.2781
 IR Inten    --      0.2118                 3.3835                 1.0356

 - Thermochemistry -
 -------------------
 Temperature   298.150 Kelvin.  Pressure   1.00000 Atm.
 Atom     1 has atomic number  6 and mass  12.00000

 Molecular mass:   118.12185 amu.
 Principal axes and moments of inertia in atomic units:
                           1         2         3
     Eigenvalues --   539.992921519.994711666.11194
           X            1.00000  -0.00215  -0.00154
           Y            0.00209   0.99917  -0.04057
           Z            0.00162   0.04057   0.99918
 This molecule is an asymmetric top.
 Rotational symmetry number  1.
 Warning -- assumption of classical behavior for rotation
           may cause significant error
 Rotational temperatures (Kelvin)      0.16040     0.05698     0.05199
 Rotational constants (GHZ):           3.34216     1.18733     1.08321
 Zero-point vibrational energy     523673.0 (Joules/Mol)
                                  125.16086 (Kcal/Mol)
 Warning -- explicit consideration of  14 degrees of freedom as
           vibrations may cause significant error
 Vibrational temperatures:     98.08   158.47   168.75   272.44   304.40
          (Kelvin)            341.72   372.76   374.28   414.75   490.11
                              512.84   542.20   712.15   732.55   914.92
                             1089.28  1165.19  1209.18  1247.06  1340.15
                             1449.55  1475.81  1526.46  1557.91  1600.60
                             1632.43  1665.20  1704.40  1753.88  1790.60
                             1821.32  1897.97  1911.84  1921.24  1998.48
                             2027.51  2063.99  2077.52  2128.28  2146.27
                             2152.07  2171.84  2174.15  2179.30  2367.07
                             2410.36  4185.17  4269.88  4294.76  4348.49
                             4373.45  4398.81  4439.67  4471.09  4484.10
                             4501.70  4835.47  5034.80  5102.53  5159.52

 Zero-point correction=                           0.199457 (Hartree/Particle)
 Thermal correction to Energy=                    0.209842
 Thermal correction to Enthalpy=                  0.210786
 Thermal correction to Gibbs Free Energy=         0.164563
 Sum of electronic and zero-point Energies=           -379.610397
 Sum of electronic and thermal Energies=              -379.600012
 Sum of electronic and thermal Enthalpies=            -379.599068
 Sum of electronic and thermal Free Energies=         -379.645291

                     E (Thermal)             CV                S
                      KCal/Mol        Cal/Mol-Kelvin    Cal/Mol-Kelvin
 Total                  131.678             37.705             97.283
 Electronic               0.000              0.000              0.000
 Translational            0.889              2.981             40.214
 Rotational               0.889              2.981             28.705
 Vibrational            129.900             31.743             28.364
 Vibration     1          0.598              1.969              4.206
 Vibration     2          0.606              1.941              3.266
 Vibration     3          0.608              1.935              3.145
 Vibration     4          0.633              1.855              2.234
 Vibration     5          0.643              1.823              2.030
 Vibration     6          0.656              1.783              1.821
 Vibration     7          0.668              1.747              1.668
 Vibration     8          0.668              1.746              1.661
 Vibration     9          0.685              1.696              1.484
 Vibration    10          0.720              1.594              1.209
 Vibration    11          0.732              1.562              1.138
 Vibration    12          0.747              1.519              1.052
 Vibration    13          0.851              1.261              0.671
 Vibration    14          0.864              1.230              0.636

                           ! Non-Optimized Parameters !
 Normal termination of Gaussian 16 at Tue Jun  1 08:20:54 2021.
