 Gaussian 16, Revision A.03,
 Gaussian 16:  ES64L-G16RevA.03 25-Dec-2016

 -----------------------------
 # opt freq b3lyp/6-31g(2df,p)
 -----------------------------

 -------------------
 Title Card Required
 -------------------
 Symbolic Z-matrix:
 Charge =  0 Multiplicity = 1

 SCF Done:  E(RB3LYP) =  -387.114714446     A.U. after   12 cycles
 SCF Done:  E(RB3LYP) =  -387.117172320     A.U. after   10 cycles
 SCF Done:  E(RB3LYP) =  -387.117423587     A.U. after   10 cycles
 SCF Done:  E(RB3LYP) =  -387.117461664     A.U. after    8 cycles
 SCF Done:  E(RB3LYP) =  -387.117473186     A.U. after    8 cycles
 SCF Done:  E(RB3LYP) =  -387.117478401     A.U. after    8 cycles
 SCF Done:  E(RB3LYP) =  -387.117481317     A.U. after    8 cycles
 SCF Done:  E(RB3LYP) =  -387.117482870     A.U. after    8 cycles
 SCF Done:  E(RB3LYP) =  -387.117483014     A.U. after    6 cycles
 Optimization completed.
    -- Stationary point found.
 Normal termination of Gaussian 16 at Tue Jun  1 00:01:57 2021.

 ----------------------------------------------------------------------
 #N Geom=AllCheck Guess=TCheck SCRF=Check GenChk RB3LYP/6-31G(2df,p) Fr
 eq
 ----------------------------------------------------------------------

 Structure from the checkpoint file:  "CCpCpCpNpCCCN.chk"
 -------------------
 Title Card Required
 -------------------
 Charge =  0 Multiplicity = 1

                         Standard orientation:
 ---------------------------------------------------------------------
 Center     Atomic      Atomic             Coordinates (Angstroms)
 Number     Number       Type             X           Y           Z
 ---------------------------------------------------------------------
      1          6           0       -3.383170   -0.471462    0.176041
      2          6           0       -2.138573    0.299431   -0.290819
      3          6           0       -2.248910    1.764782    0.162242
      4          6           0       -0.825441   -0.380576    0.194669
      5          7           0       -0.726113   -1.813660   -0.120499
      6          6           0        0.435474    0.313788   -0.349401
      7          6           0        1.743033   -0.219308    0.245050
      8          6           0        2.980542    0.472901   -0.325449
      9          7           0        4.203926   -0.094203    0.253588
     10          1           0       -4.297152    0.022676   -0.168532
     11          1           0       -3.428130   -0.517905    1.271638
     12          1           0       -3.403562   -1.496238   -0.204870
     13          1           0       -2.124519    0.281383   -1.391939
     14          1           0       -2.176578    1.841766    1.254259
     15          1           0       -3.215063    2.188023   -0.131640
     16          1           0       -1.471394    2.399478   -0.269254
     17          1           0       -0.807331   -0.306787    1.293150
     18          1           0       -0.844938   -1.954497   -1.121355
     19          1           0       -1.469957   -2.333565    0.331869
     20          1           0        0.371669    1.391222   -0.165856
     21          1           0        0.453713    0.192456   -1.443573
     22          1           0        1.818140   -1.296402    0.077331
     23          1           0        1.725413   -0.076873    1.336027
     24          1           0        2.885481    1.565185   -0.181686
     25          1           0        3.020178    0.308228   -1.410268
     26          1           0        4.223371    0.095526    1.252247
     27          1           0        5.018239    0.374029   -0.133173
 ---------------------------------------------------------------------

 SCF Done:  E(RB3LYP) =  -387.117483014     A.U. after    1 cycles

 The electronic state is 1-A.
 Alpha  occ. eigenvalues --  -14.30123 -14.29685 -10.20301 -10.19296 -10.18276
 Alpha  occ. eigenvalues --  -10.17188 -10.17066 -10.16996 -10.16196  -0.88047
 Alpha  occ. eigenvalues --   -0.86613  -0.78409  -0.75912  -0.68530  -0.67227
 Alpha  occ. eigenvalues --   -0.61079  -0.57056  -0.55778  -0.49019  -0.47187
 Alpha  occ. eigenvalues --   -0.45072  -0.44620  -0.44152  -0.43248  -0.39995
 Alpha  occ. eigenvalues --   -0.38844  -0.37922  -0.37472  -0.36436  -0.34747
 Alpha  occ. eigenvalues --   -0.33671  -0.32836  -0.31723  -0.31529  -0.30585
 Alpha  occ. eigenvalues --   -0.22851  -0.22498
 Alpha virt. eigenvalues --    0.07475   0.09117   0.10185   0.11521   0.12024
 Alpha virt. eigenvalues --    0.13828   0.14089   0.14964   0.16030   0.16547
 Alpha virt. eigenvalues --    0.17557   0.17952   0.18206   0.19336   0.19808

 Mulliken charges:
               1
     1  C   -0.399723
     2  C    0.039847
     3  C   -0.391269
     4  C    0.029784
     5  N   -0.509689
     6  C   -0.183092
     7  C   -0.149892
     8  C   -0.147330
     9  N   -0.508604
    10  H    0.111170
    11  H    0.110116
    12  H    0.101105
    13  H    0.061297
    14  H    0.110995
    15  H    0.108374
    16  H    0.116905
    17  H    0.070643
    18  H    0.217319
    19  H    0.226244
    20  H    0.092559
    21  H    0.082700
    22  H    0.127400
    23  H    0.077621
    24  H    0.069126
    25  H    0.096537
    26  H    0.219087
    27  H    0.220769
 Sum of Mulliken charges =  -0.00000

 Dipole moment (field-independent basis, Debye):
    X=             -1.1167    Y=              1.3148    Z=             -0.1310  Tot=              1.7300
 Quadrupole moment (field-independent basis, Debye-Ang):
   XX=            -57.5079   YY=            -61.2618   ZZ=            -56.5606
   XY=              7.7363   XZ=              1.3206   YZ=              1.2388

  Exact polarizability: 112.162   0.750  87.196  -0.342  -0.099  81.086
 Approx polarizability: 129.098  -0.072 124.338  -0.526   0.213 128.402

                      1                      2                      3
                      A                      A                      A
 Frequencies --     35.6315                55.9652                75.6314
 Red. masses --      1.8507                 3.0169                 2.6601
 Frc consts  --      0.0014                 0.0056                 0.0090
 IR Inten    --      1.6934                 0.4906                 0.5745

                      4                      5                      6
                      A                      A                      A
 Frequencies --    109.6266               142.8395               191.9482
 Red. masses --      2.6870                 2.2880                 1.3368
 Frc consts  --      0.0190                 0.0275                 0.0290
 IR Inten    --      1.9768                 1.0222                 0.2729

                      7                      8                      9
                      A                      A                      A
 Frequencies --    222.1451               240.6850               257.8391
 Red. masses --      1.1220                 1.3656                 1.1915
 Frc consts  --      0.0326                 0.0466                 0.0467
 IR Inten    --      4.9445                 1.7053                56.6153

                     10                     11                     12
                      A                      A                      A
 Frequencies --    272.1024               293.4855               346.4083
 Red. masses --      1.6214                 2.8229                 2.3471
 Frc consts  --      0.0707                 0.1433                 0.1659
 IR Inten    --      2.0715                 0.9932                10.0876

                     13                     14                     15
                      A                      A                      A
 Frequencies --    377.2031               402.6892               471.9280
 Red. masses --      2.2392                 2.3213                 2.5953
 Frc consts  --      0.1877                 0.2218                 0.3406
 IR Inten    --      5.4865                 0.6182                 3.0344

                     16                     17                     18
                      A                      A                      A
 Frequencies --    488.3471               536.7475               756.0560
 Red. masses --      2.7919                 2.3434                 1.1490
 Frc consts  --      0.3923                 0.3978                 0.3870
 IR Inten    --      9.5223                 4.5815                 0.8413

                     19                     20                     21
                      A                      A                      A
 Frequencies --    799.6284               838.6748               877.2057
 Red. masses --      1.9636                 1.2466                 1.6713
 Frc consts  --      0.7397                 0.5166                 0.7577
 IR Inten    --     57.9248                30.4379                36.0191

                     22                     23                     24
                      A                      A                      A
 Frequencies --    892.4173               901.7193               926.2440
 Red. masses --      1.5671                 1.9435                 1.1811
 Frc consts  --      0.7353                 0.9311                 0.5970
 IR Inten    --    179.3199                 4.2018                 2.6088

                     25                     26                     27
                      A                      A                      A
 Frequencies --    964.3168               977.2682               984.1673
 Red. masses --      1.4210                 1.9078                 2.1674
 Frc consts  --      0.7786                 1.0735                 1.2369
 IR Inten    --      2.1150                15.7778                 2.4745

                     28                     29                     30
                      A                      A                      A
 Frequencies --   1034.6248              1059.4730              1089.3099
 Red. masses --      2.3028                 1.5237                 2.4558
 Frc consts  --      1.4523                 1.0077                 1.7169
 IR Inten    --      1.0328                 3.8469                11.2190

                     31                     32                     33
                      A                      A                      A
 Frequencies --   1099.2195              1118.0145              1148.7664
 Red. masses --      2.0226                 1.5198                 1.8276
 Frc consts  --      1.4399                 1.1193                 1.4210
 IR Inten    --      1.6275                 6.2619                 7.5650

                     34                     35                     36
                      A                      A                      A
 Frequencies --   1168.0181              1185.9709              1240.9434
 Red. masses --      2.1446                 1.7630                 1.6159
 Frc consts  --      1.7239                 1.4610                 1.4661
 IR Inten    --      3.3526                 1.2551                 0.7529

                     37                     38                     39
                      A                      A                      A
 Frequencies --   1256.8676              1278.2583              1321.8183
 Red. masses --      1.3796                 1.4381                 1.0735
 Frc consts  --      1.2840                 1.3844                 1.1051
 IR Inten    --      6.6678                 7.0703                 2.1412

                     40                     41                     42
                      A                      A                      A
 Frequencies --   1333.3330              1336.6646              1344.7428
 Red. masses --      1.2145                 1.2992                 1.3510
 Frc consts  --      1.2721                 1.3676                 1.4394
 IR Inten    --      0.9041                 5.9732                 1.7012

                     43                     44                     45
                      A                      A                      A
 Frequencies --   1374.3329              1385.7883              1399.3715
 Red. masses --      1.3790                 1.3959                 1.3104
 Frc consts  --      1.5346                 1.5794                 1.5119
 IR Inten    --      1.5459                 5.0444                 4.7724

                     46                     47                     48
                      A                      A                      A
 Frequencies --   1406.6672              1421.0050              1431.0579
 Red. masses --      1.3639                 1.2250                 1.4712
 Frc consts  --      1.5900                 1.4574                 1.7751
 IR Inten    --      2.0058                 3.8593                21.1634

                     49                     50                     51
                      A                      A                      A
 Frequencies --   1480.1070              1488.1718              1496.6933
 Red. masses --      1.0782                 1.0530                 1.0454
 Frc consts  --      1.3917                 1.3740                 1.3797
 IR Inten    --      0.6388                 0.3537                 2.1225

                     52                     53                     54
                      A                      A                      A
 Frequencies --   1499.2842              1504.7877              1516.5606
 Red. masses --      1.0817                 1.0558                 1.0467
 Frc consts  --      1.4326                 1.4085                 1.4183
 IR Inten    --      1.7090                 2.9548                11.2160

                     55                     56                     57
                      A                      A                      A
 Frequencies --   1520.6564              1654.9267              1658.0451
 Red. masses --      1.0924                 1.0931                 1.0887
 Frc consts  --      1.4883                 1.7639                 1.7634
 IR Inten    --      1.1611                18.7548                20.7062

                     58                     59                     60
                      A                      A                      A
 Frequencies --   2923.4026              2977.1054              2986.4356
 Red. masses --      1.0730                 1.0796                 1.0763
 Frc consts  --      5.4031                 5.6377                 5.6555
 IR Inten    --     80.9854                 3.0165                 5.5634

                     61                     62                     63
                      A                      A                      A
 Frequencies --   2995.3105              3005.8654              3022.7704
 Red. masses --      1.0754                 1.0739                 1.0387
 Frc consts  --      5.6848                 5.7169                 5.5917
 IR Inten    --      4.6363                66.7601                23.9153

                     64                     65                     66
                      A                      A                      A
 Frequencies --   3028.9433              3033.8581              3068.7898
 Red. masses --      1.0394                 1.0847                 1.0895
 Frc consts  --      5.6185                 5.8825                 6.0449
 IR Inten    --     28.9039                60.7383                25.7728

                     67                     68                     69
                      A                      A                      A
 Frequencies --   3085.8687              3092.2835              3105.3626
 Red. masses --      1.0991                 1.0979                 1.0997
 Frc consts  --      6.1663                 6.1855                 6.2480
 IR Inten    --      2.3523                64.0981                21.7253

                     70                     71                     72
                      A                      A                      A
 Frequencies --   3107.7983              3116.4814              3479.5239
 Red. masses --      1.0925                 1.0972                 1.0513
 Frc consts  --      6.2170                 6.2787                 7.4990
 IR Inten    --     40.4210                33.2355                 0.5984

                     73                     74                     75
                      A                      A                      A
 Frequencies --   3480.8466              3558.3533              3574.8086
 Red. masses --      1.0494                 1.0917                 1.0893
 Frc consts  --      7.4917                 8.1441                 8.2016
 IR Inten    --      1.8835                 0.4399                 0.2158

 - Thermochemistry -
 -------------------
 Temperature   298.150 Kelvin.  Pressure   1.00000 Atm.
 Atom     1 has atomic number  6 and mass  12.00000

 Molecular mass:   130.14700 amu.
 Principal axes and moments of inertia in atomic units:
                           1         2         3
     Eigenvalues --   530.603782925.074183293.71301
           X            0.99999   0.00399  -0.00117
           Y           -0.00398   0.99999   0.00277
           Z            0.00118  -0.00277   1.00000
 This molecule is an asymmetric top.
 Rotational symmetry number  1.
 Warning -- assumption of classical behavior for rotation
           may cause significant error
 Rotational temperatures (Kelvin)      0.16324     0.02961     0.02630
 Rotational constants (GHZ):           3.40130     0.61699     0.54794
 Zero-point vibrational energy     659957.1 (Joules/Mol)
                                  157.73353 (Kcal/Mol)
 Warning -- explicit consideration of  17 degrees of freedom as
           vibrations may cause significant error
 Vibrational temperatures:     51.27    80.52   108.82   157.73   205.51
          (Kelvin)            276.17   319.62   346.29   370.97   391.49
                              422.26   498.40   542.71   579.38   679.00
                              702.62   772.26  1087.80  1150.49  1206.67
                             1262.10  1283.99  1297.37  1332.66  1387.44
                             1406.07  1416.00  1488.59  1524.35  1567.27
                             1581.53  1608.57  1652.82  1680.52  1706.35
                             1785.44  1808.35  1839.13  1901.80  1918.37
                             1923.16  1934.78  1977.36  1993.84  2013.38
                             2023.88  2044.51  2058.97  2129.54  2141.15
                             2153.41  2157.14  2165.05  2181.99  2187.89
                             2381.07  2385.56  4206.12  4283.39  4296.81
                             4309.58  4324.77  4349.09  4357.97  4365.05
                             4415.30  4439.88  4449.11  4467.92  4471.43
                             4483.92  5006.26  5008.16  5119.68  5143.35

 Zero-point correction=                           0.251364 (Hartree/Particle)
 Thermal correction to Energy=                    0.263613
 Thermal correction to Enthalpy=                  0.264557
 Thermal correction to Gibbs Free Energy=         0.212834
 Sum of electronic and zero-point Energies=           -386.866119
 Sum of electronic and thermal Energies=              -386.853870
 Sum of electronic and thermal Enthalpies=            -386.852926
 Sum of electronic and thermal Free Energies=         -386.904649

                     E (Thermal)             CV                S
                      KCal/Mol        Cal/Mol-Kelvin    Cal/Mol-Kelvin
 Total                  165.420             44.296            108.862
 Electronic               0.000              0.000              0.000
 Translational            0.889              2.981             40.503
 Rotational               0.889              2.981             30.015
 Vibrational            163.642             38.334             38.344
 Vibration     1          0.594              1.982              5.488
 Vibration     2          0.596              1.975              4.595
 Vibration     3          0.599              1.965              4.001
 Vibration     4          0.606              1.941              3.276
 Vibration     5          0.616              1.910              2.765
 Vibration     6          0.634              1.851              2.209
 Vibration     7          0.648              1.807              1.942
 Vibration     8          0.658              1.778              1.798
 Vibration     9          0.667              1.750              1.676
 Vibration    10          0.675              1.725              1.583
 Vibration    11          0.688              1.686              1.454
 Vibration    12          0.724              1.583              1.182
 Vibration    13          0.748              1.519              1.050
 Vibration    14          0.768              1.464              0.953
 Vibration    15          0.829              1.312              0.732
 Vibration    16          0.844              1.276              0.688
 Vibration    17          0.892              1.169              0.572

                           ! Non-Optimized Parameters !
 Normal termination of Gaussian 16 at Tue Jun  1 00:44:10 2021.
