 Gaussian 16, Revision A.03,
 Gaussian 16:  ES64L-G16RevA.03 25-Dec-2016

 -----------------------------
 # opt freq b3lyp/6-31g(2df,p)
 -----------------------------

 -------------------
 Title Card Required
 -------------------
 Symbolic Z-matrix:
 Charge =  0 Multiplicity = 1

 SCF Done:  E(RB3LYP) =  -347.791846193     A.U. after   12 cycles
 SCF Done:  E(RB3LYP) =  -347.796638688     A.U. after   11 cycles
 SCF Done:  E(RB3LYP) =  -347.797412635     A.U. after   10 cycles
 SCF Done:  E(RB3LYP) =  -347.797668683     A.U. after   10 cycles
 SCF Done:  E(RB3LYP) =  -347.797803317     A.U. after    9 cycles
 SCF Done:  E(RB3LYP) =  -347.797878043     A.U. after    9 cycles
 SCF Done:  E(RB3LYP) =  -347.797907164     A.U. after    9 cycles
 SCF Done:  E(RB3LYP) =  -347.797951391     A.U. after   10 cycles
 SCF Done:  E(RB3LYP) =  -347.797993960     A.U. after   10 cycles
 SCF Done:  E(RB3LYP) =  -347.798009330     A.U. after   10 cycles
 SCF Done:  E(RB3LYP) =  -347.798055454     A.U. after   10 cycles
 SCF Done:  E(RB3LYP) =  -347.798068446     A.U. after    7 cycles
 SCF Done:  E(RB3LYP) =  -347.797963321     A.U. after   11 cycles
 SCF Done:  E(RB3LYP) =  -347.798119230     A.U. after   10 cycles
 SCF Done:  E(RB3LYP) =  -347.798126876     A.U. after    9 cycles
 SCF Done:  E(RB3LYP) =  -347.798119689     A.U. after    9 cycles
 SCF Done:  E(RB3LYP) =  -347.798127379     A.U. after    9 cycles
 SCF Done:  E(RB3LYP) =  -347.798127386     A.U. after    6 cycles
 SCF Done:  E(RB3LYP) =  -347.798127439     A.U. after    6 cycles
 Optimization completed.
    -- Stationary point found.
 Normal termination of Gaussian 16 at Tue Jun  1 21:08:58 2021.

 ----------------------------------------------------------------------
 #N Geom=AllCheck Guess=TCheck SCRF=Check GenChk RB3LYP/6-31G(2df,p) Fr
 eq
 ----------------------------------------------------------------------

 Structure from the checkpoint file:  "CCpCpCpCpNCN.chk"
 -------------------
 Title Card Required
 -------------------
 Charge =  0 Multiplicity = 1

                         Standard orientation:
 ---------------------------------------------------------------------
 Center     Atomic      Atomic             Coordinates (Angstroms)
 Number     Number       Type             X           Y           Z
 ---------------------------------------------------------------------
      1          6           0        2.829676    0.294116    0.008760
      2          6           0        1.480485   -0.355517   -0.331987
      3          6           0        1.484803   -1.813732    0.158207
      4          6           0        0.275185    0.436215    0.231831
      5          6           0        0.366749    1.942979   -0.050302
      6          7           0       -0.966755   -0.083859   -0.352936
      7          6           0       -2.161261    0.086942    0.454149
      8          7           0       -3.268746   -0.545536   -0.254162
      9          1           0        3.653698   -0.328883   -0.353775
     10          1           0        2.953020    0.402203    1.093354
     11          1           0        2.941295    1.282780   -0.442270
     12          1           0        1.368104   -0.357306   -1.425856
     13          1           0        1.614805   -1.854372    1.246290
     14          1           0        2.311421   -2.370448   -0.294674
     15          1           0        0.564414   -2.354390   -0.082570
     16          1           0        0.282188    0.294683    1.331484
     17          1           0        0.507408    2.123675   -1.121158
     18          1           0        1.189379    2.409649    0.497834
     19          1           0       -0.554621    2.448522    0.251903
     20          1           0       -0.886623   -1.073322   -0.556591
     21          1           0       -2.299525    1.165292    0.640192
     22          1           0       -2.088065   -0.395342    1.448337
     23          1           0       -3.448482   -0.033564   -1.113137
     24          1           0       -4.113730   -0.499426    0.306372
 ---------------------------------------------------------------------

 SCF Done:  E(RB3LYP) =  -347.798127439     A.U. after    1 cycles

 The electronic state is 1-A.
 Alpha  occ. eigenvalues --  -14.30414 -14.29904 -10.22171 -10.20309 -10.18383
 Alpha  occ. eigenvalues --  -10.17141 -10.16947 -10.16351  -0.91429  -0.85094
 Alpha  occ. eigenvalues --   -0.78559  -0.71946  -0.67797  -0.63902  -0.59688
 Alpha  occ. eigenvalues --   -0.55310  -0.49605  -0.48901  -0.45058  -0.43052
 Alpha  occ. eigenvalues --   -0.42490  -0.41627  -0.39250  -0.38816  -0.37968
 Alpha  occ. eigenvalues --   -0.36866  -0.36319  -0.35064  -0.32665  -0.31946
 Alpha  occ. eigenvalues --   -0.30578  -0.23722  -0.21399
 Alpha virt. eigenvalues --    0.08276   0.09333   0.11101   0.11889   0.12736
 Alpha virt. eigenvalues --    0.14322   0.15161   0.16116   0.16478   0.17568
 Alpha virt. eigenvalues --    0.17937   0.18746   0.19284   0.19603   0.21377

 Mulliken charges:
               1
     1  C   -0.397663
     2  C    0.026319
     3  C   -0.399729
     4  C    0.090627
     5  C   -0.387590
     6  N   -0.294358
     7  C   -0.087196
     8  N   -0.514659
     9  H    0.108804
    10  H    0.111268
    11  H    0.117296
    12  H    0.078819
    13  H    0.114111
    14  H    0.112999
    15  H    0.112224
    16  H    0.046245
    17  H    0.115249
    18  H    0.109269
    19  H    0.109229
    20  H    0.215592
    21  H    0.084349
    22  H    0.076829
    23  H    0.227640
    24  H    0.224327
 Sum of Mulliken charges =  -0.00000

 Dipole moment (field-independent basis, Debye):
    X=             -0.2113    Y=              0.4592    Z=              0.6229  Tot=              0.8021
 Quadrupole moment (field-independent basis, Debye-Ang):
   XX=            -48.0027   YY=            -54.3155   ZZ=            -52.7966
   XY=             -3.0656   XZ=             -1.4724   YZ=             -0.1613

  Exact polarizability:  97.586   1.138  80.000  -0.586  -0.018  71.005
 Approx polarizability: 117.663   1.750 109.220  -0.262   1.104 111.577

                      1                      2                      3
                      A                      A                      A
 Frequencies --     55.0465                71.2317                90.0614
 Red. masses --      2.2224                 2.0699                 3.0534
 Frc consts  --      0.0040                 0.0062                 0.0146
 IR Inten    --      0.7803                 2.5671                 2.6569

                      4                      5                      6
                      A                      A                      A
 Frequencies --    170.2145               199.6098               220.6070
 Red. masses --      2.5327                 1.1228                 1.0623
 Frc consts  --      0.0432                 0.0264                 0.0305
 IR Inten    --      1.7160                 0.2552                 0.1455

                      7                      8                      9
                      A                      A                      A
 Frequencies --    248.0953               272.6718               314.4280
 Red. masses --      1.3558                 1.3098                 1.8046
 Frc consts  --      0.0492                 0.0574                 0.1051
 IR Inten    --      1.4160                28.4296                 5.6226

                     10                     11                     12
                      A                      A                      A
 Frequencies --    349.2857               380.1936               391.5287
 Red. masses --      2.5073                 2.3681                 2.2780
 Frc consts  --      0.1802                 0.2017                 0.2057
 IR Inten    --      6.0148                 2.3748                 1.7049

                     13                     14                     15
                      A                      A                      A
 Frequencies --    437.7462               478.3170               561.3593
 Red. masses --      2.5475                 2.7410                 2.5151
 Frc consts  --      0.2876                 0.3695                 0.4670
 IR Inten    --      3.2137                 3.1356                 2.8930

                     16                     17                     18
                      A                      A                      A
 Frequencies --    769.7922               805.4001               863.9597
 Red. masses --      1.3712                 1.9247                 1.3541
 Frc consts  --      0.4787                 0.7356                 0.5955
 IR Inten    --     48.7083                 9.4398               126.1183

                     19                     20                     21
                      A                      A                      A
 Frequencies --    891.4125               929.2825               945.4400
 Red. masses --      2.0014                 1.1944                 1.7368
 Frc consts  --      0.9370                 0.6077                 0.9147
 IR Inten    --     18.6493                 0.7390                 2.0059

                     22                     23                     24
                      A                      A                      A
 Frequencies --    965.4843               988.5088              1008.4144
 Red. masses --      1.4443                 1.2557                 1.6078
 Frc consts  --      0.7932                 0.7229                 0.9633
 IR Inten    --      0.0230                 5.4684                 2.9691

                     25                     26                     27
                      A                      A                      A
 Frequencies --   1056.4746              1102.4635              1111.6917
 Red. masses --      2.5857                 2.1327                 2.2861
 Frc consts  --      1.7004                 1.5272                 1.6646
 IR Inten    --      1.1663                 9.7102                18.8488

                     28                     29                     30
                      A                      A                      A
 Frequencies --   1166.4701              1178.7749              1190.6022
 Red. masses --      2.6723                 2.0824                 1.8184
 Frc consts  --      2.1423                 1.7048                 1.5187
 IR Inten    --     55.4626                 7.3112                15.1496

                     31                     32                     33
                      A                      A                      A
 Frequencies --   1211.3198              1221.7464              1297.5744
 Red. masses --      1.9906                 1.3127                 1.2962
 Frc consts  --      1.7209                 1.1544                 1.2859
 IR Inten    --     15.2140                 7.2581                 7.9894

                     34                     35                     36
                      A                      A                      A
 Frequencies --   1327.3996              1349.8008              1369.3556
 Red. masses --      1.3406                 1.3077                 1.3296
 Frc consts  --      1.3917                 1.4038                 1.4689
 IR Inten    --      7.7676                 8.0684                21.6907

                     37                     38                     39
                      A                      A                      A
 Frequencies --   1378.9283              1402.0609              1407.9570
 Red. masses --      1.3909                 1.2678                 1.2467
 Frc consts  --      1.5582                 1.4684                 1.4561
 IR Inten    --      1.2503                 0.8487                11.9371

                     40                     41                     42
                      A                      A                      A
 Frequencies --   1425.1130              1434.5297              1481.4171
 Red. masses --      1.2175                 1.3079                 1.1481
 Frc consts  --      1.4569                 1.5858                 1.4845
 IR Inten    --      7.0146                 5.2399                34.3241

                     43                     44                     45
                      A                      A                      A
 Frequencies --   1485.5925              1488.6902              1500.0985
 Red. masses --      1.0606                 1.0596                 1.0498
 Frc consts  --      1.3791                 1.3836                 1.3919
 IR Inten    --      5.7078                 1.0516                10.3364

                     46                     47                     48
                      A                      A                      A
 Frequencies --   1502.2184              1514.3824              1517.9973
 Red. masses --      1.0684                 1.1041                 1.0719
 Frc consts  --      1.4205                 1.4919                 1.4552
 IR Inten    --      6.7699                23.3889                12.3559

                     49                     50                     51
                      A                      A                      A
 Frequencies --   1541.1916              1640.5911              2888.1124
 Red. masses --      1.0853                 1.1001                 1.0798
 Frc consts  --      1.5189                 1.7446                 5.3067
 IR Inten    --      1.8264                31.1552                37.5352

                     52                     53                     54
                      A                      A                      A
 Frequencies --   2910.4854              2955.6991              3004.1902
 Red. masses --      1.0711                 1.0870                 1.0823
 Frc consts  --      5.3457                 5.5949                 5.7550
 IR Inten    --    107.0936                72.7385                17.0292

                     55                     56                     57
                      A                      A                      A
 Frequencies --   3026.2420              3031.2607              3040.1566
 Red. masses --      1.0374                 1.0382                 1.0362
 Frc consts  --      5.5976                 5.6206                 5.6429
 IR Inten    --     22.1877                28.1148                19.4047

                     58                     59                     60
                      A                      A                      A
 Frequencies --   3088.9910              3094.9570              3099.9120
 Red. masses --      1.0997                 1.0995                 1.1003
 Frc consts  --      6.1823                 6.2050                 6.2299
 IR Inten    --      6.4133                44.4007                44.3401

                     61                     62                     63
                      A                      A                      A
 Frequencies --   3108.5611              3113.6945              3121.5537
 Red. masses --      1.1004                 1.1009                 1.0990
 Frc consts  --      6.2650                 6.2887                 6.3097
 IR Inten    --     39.1126                41.4220                21.9253

                     64                     65                     66
                      A                      A                      A
 Frequencies --   3492.6510              3544.1834              3578.6683
 Red. masses --      1.0491                 1.0728                 1.0923
 Frc consts  --      7.5405                 7.9393                 8.2423
 IR Inten    --      0.3996                 0.7395                 0.3021

 - Thermochemistry -
 -------------------
 Temperature   298.150 Kelvin.  Pressure   1.00000 Atm.
 Atom     1 has atomic number  6 and mass  12.00000

 Molecular mass:   116.13135 amu.
 Principal axes and moments of inertia in atomic units:
                           1         2         3
     Eigenvalues --   537.002311689.155562081.97276
           X            0.99997  -0.00792  -0.00262
           Y            0.00791   0.99996  -0.00379
           Z            0.00265   0.00377   0.99999
 This molecule is an asymmetric top.
 Rotational symmetry number  1.
 Warning -- assumption of classical behavior for rotation
           may cause significant error
 Rotational temperatures (Kelvin)      0.16129     0.05128     0.04160
 Rotational constants (GHZ):           3.36077     1.06843     0.86684
 Zero-point vibrational energy     585044.8 (Joules/Mol)
                                  139.82906 (Kcal/Mol)
 Warning -- explicit consideration of  15 degrees of freedom as
           vibrations may cause significant error
 Vibrational temperatures:     79.20   102.49   129.58   244.90   287.19
          (Kelvin)            317.40   356.95   392.31   452.39   502.54
                              547.01   563.32   629.82   688.19   807.67
                             1107.56  1158.79  1243.05  1282.54  1337.03
                             1360.28  1389.12  1422.24  1450.88  1520.03
                             1586.20  1599.48  1678.29  1695.99  1713.01
                             1742.82  1757.82  1866.92  1909.83  1942.06
                             1970.20  1983.97  2017.25  2025.74  2050.42
                             2063.97  2131.43  2137.44  2141.89  2158.31
                             2161.36  2178.86  2184.06  2217.43  2360.44
                             4155.35  4187.54  4252.59  4322.36  4354.09
                             4361.31  4374.11  4444.37  4452.95  4460.08
                             4472.53  4479.91  4491.22  5025.15  5099.29
                             5148.91

 Zero-point correction=                           0.222832 (Hartree/Particle)
 Thermal correction to Energy=                    0.233559
 Thermal correction to Enthalpy=                  0.234503
 Thermal correction to Gibbs Free Energy=         0.186981
 Sum of electronic and zero-point Energies=           -347.575296
 Sum of electronic and thermal Energies=              -347.564568
 Sum of electronic and thermal Enthalpies=            -347.563624
 Sum of electronic and thermal Free Energies=         -347.611146

                     E (Thermal)             CV                S
                      KCal/Mol        Cal/Mol-Kelvin    Cal/Mol-Kelvin
 Total                  146.561             38.982            100.019
 Electronic               0.000              0.000              0.000
 Translational            0.889              2.981             40.164
 Rotational               0.889              2.981             29.025
 Vibrational            144.783             33.021             30.830
 Vibration     1          0.596              1.976              4.627
 Vibration     2          0.598              1.968              4.119
 Vibration     3          0.602              1.956              3.659
 Vibration     4          0.625              1.879              2.433
 Vibration     5          0.638              1.840              2.137
 Vibration     6          0.647              1.810              1.954
 Vibration     7          0.662              1.766              1.744
 Vibration     8          0.676              1.724              1.579
 Vibration     9          0.702              1.646              1.339
 Vibration    10          0.727              1.577              1.169
 Vibration    11          0.750              1.512              1.038
 Vibration    12          0.759              1.488              0.994
 Vibration    13          0.798              1.388              0.834
 Vibration    14          0.835              1.298              0.715
 Vibration    15          0.917              1.115              0.521

 Optimization completed.
    -- Stationary point found.
 Normal termination of Gaussian 16 at Tue Jun  1 21:45:00 2021.
