 Gaussian 16, Revision A.03,
 Gaussian 16:  ES64L-G16RevA.03 25-Dec-2016

 -----------------------------
 # opt freq b3lyp/6-31g(2df,p)
 -----------------------------

 -------------------
 Title Card Required
 -------------------
 Symbolic Z-matrix:
 Charge =  0 Multiplicity = 1

 SCF Done:  E(RB3LYP) =  -454.835604100     A.U. after   15 cycles
 SCF Done:  E(RB3LYP) =  -454.859345917     A.U. after   12 cycles
 SCF Done:  E(RB3LYP) =  -454.861551979     A.U. after   13 cycles
 SCF Done:  E(RB3LYP) =  -454.863639584     A.U. after   15 cycles
 SCF Done:  E(RB3LYP) =  -454.864291044     A.U. after   12 cycles
 SCF Done:  E(RB3LYP) =  -454.864523277     A.U. after   12 cycles
 SCF Done:  E(RB3LYP) =  -454.864606250     A.U. after   11 cycles
 SCF Done:  E(RB3LYP) =  -454.864698005     A.U. after   10 cycles
 SCF Done:  E(RB3LYP) =  -454.864794348     A.U. after   11 cycles
 SCF Done:  E(RB3LYP) =  -454.864867772     A.U. after   12 cycles
 SCF Done:  E(RB3LYP) =  -454.864893740     A.U. after   10 cycles
 SCF Done:  E(RB3LYP) =  -454.864999134     A.U. after   10 cycles
 SCF Done:  E(RB3LYP) =  -454.864945499     A.U. after   10 cycles
 SCF Done:  E(RB3LYP) =  -454.865002309     A.U. after   10 cycles
 SCF Done:  E(RB3LYP) =  -454.864880640     A.U. after   10 cycles
 SCF Done:  E(RB3LYP) =  -454.865002756     A.U. after   10 cycles
 SCF Done:  E(RB3LYP) =  -454.864958445     A.U. after   10 cycles
 SCF Done:  E(RB3LYP) =  -454.865002976     A.U. after   10 cycles
 SCF Done:  E(RB3LYP) =  -454.865003002     A.U. after    7 cycles
 Optimization completed.
    -- Stationary point found.
 Normal termination of Gaussian 16 at Mon May 31 20:42:13 2021.

 ----------------------------------------------------------------------
 #N Geom=AllCheck Guess=TCheck SCRF=Check GenChk RB3LYP/6-31G(2df,p) Fr
 eq
 ----------------------------------------------------------------------

 Structure from the checkpoint file:  "CCpCNCCtNpNdCN.chk"
 -------------------
 Title Card Required
 -------------------
 Charge =  0 Multiplicity = 1

                         Standard orientation:
 ---------------------------------------------------------------------
 Center     Atomic      Atomic             Coordinates (Angstroms)
 Number     Number       Type             X           Y           Z
 ---------------------------------------------------------------------
      1          6           0       -0.820250    2.035593    0.126197
      2          6           0       -0.968352    0.542634   -0.194863
      3          6           0        0.161369   -0.300827    0.420488
      4          7           0        1.473965    0.071140   -0.104698
      5          6           0        2.532040   -0.805312    0.381534
      6          6           0        3.842822   -0.381011   -0.119691
      7          7           0        4.878743   -0.034576   -0.495032
      8          7           0       -2.227382    0.059617    0.348232
      9          6           0       -3.076464   -0.419598   -0.464742
     10          7           0       -4.263667   -0.980698   -0.060305
     11          1           0        0.096833    2.452158   -0.302932
     12          1           0       -0.814484    2.197192    1.209302
     13          1           0       -1.662662    2.594608   -0.290730
     14          1           0       -0.916419    0.412799   -1.290232
     15          1           0       -0.016810   -1.351823    0.162622
     16          1           0        0.095775   -0.230486    1.521317
     17          1           0        1.694437    1.026601    0.155542
     18          1           0        2.339927   -1.824440    0.022991
     19          1           0        2.596994   -0.872153    1.483785
     20          1           0       -2.919428   -0.471396   -1.552494
     21          1           0       -4.531217   -0.784299    0.893393
     22          1           0       -5.021547   -0.986011   -0.723479
 ---------------------------------------------------------------------

 SCF Done:  E(RB3LYP) =  -454.865003002     A.U. after    1 cycles

 The electronic state is 1-A.
 Alpha  occ. eigenvalues --  -14.34878 -14.33290 -14.32641 -14.30028 -10.25600
 Alpha  occ. eigenvalues --  -10.25221 -10.21784 -10.21291 -10.20940 -10.17500
 Alpha  occ. eigenvalues --   -0.95025  -0.92920  -0.89435  -0.87577  -0.77026
 Alpha  occ. eigenvalues --   -0.72464  -0.66903  -0.61481  -0.58222  -0.54192
 Alpha  occ. eigenvalues --   -0.52274  -0.49598  -0.48993  -0.46463  -0.44377
 Alpha  occ. eigenvalues --   -0.43106  -0.42034  -0.40787  -0.37908  -0.36844
 Alpha  occ. eigenvalues --   -0.35582  -0.34283  -0.34097  -0.32781  -0.32216
 Alpha  occ. eigenvalues --   -0.25342  -0.24437  -0.23444
 Alpha virt. eigenvalues --    0.02148   0.03276   0.04392   0.07862   0.08625
 Alpha virt. eigenvalues --    0.09833   0.10197   0.12108   0.14328   0.15745
 Alpha virt. eigenvalues --    0.16005   0.16519   0.17779   0.18567   0.19190

 Mulliken charges:
               1
     1  C   -0.389704
     2  C    0.023208
     3  C   -0.118701
     4  N   -0.309326
     5  C   -0.257762
     6  C    0.254889
     7  N   -0.300165
     8  N   -0.216199
     9  C    0.086856
    10  N   -0.502132
    11  H    0.113708
    12  H    0.120475
    13  H    0.116915
    14  H    0.066293
    15  H    0.103802
    16  H    0.091624
    17  H    0.231925
    18  H    0.155570
    19  H    0.130570
    20  H    0.086503
    21  H    0.256872
    22  H    0.254778
 Sum of Mulliken charges =   0.00000

 Dipole moment (field-independent basis, Debye):
    X=             -5.7257    Y=             -0.7510    Z=              0.6169  Tot=              5.8076
 Quadrupole moment (field-independent basis, Debye-Ang):
   XX=            -69.4837   YY=            -59.0023   ZZ=            -59.7987
   XY=             -0.9949   XZ=             10.4094   YZ=              0.4173

  Exact polarizability: 131.629  12.200  76.653  -0.277   0.039  74.005
 Approx polarizability: 164.463  23.425 112.274  -1.649   0.986 118.895

                      1                      2                      3
                      A                      A                      A
 Frequencies --     36.3424                57.0739                85.1094
 Red. masses --      4.8145                 4.1163                 2.7519
 Frc consts  --      0.0037                 0.0079                 0.0117
 IR Inten    --      2.3228                 4.9501                10.0737

                      4                      5                      6
                      A                      A                      A
 Frequencies --    101.2718               125.3184               174.1451
 Red. masses --      3.7347                 2.5983                 2.2972
 Frc consts  --      0.0226                 0.0240                 0.0410
 IR Inten    --      3.4283                 2.7815                 6.0354

                      7                      8                      9
                      A                      A                      A
 Frequencies --    210.4884               248.7020               275.7688
 Red. masses --      1.7224                 1.8258                 2.4313
 Frc consts  --      0.0450                 0.0665                 0.1089
 IR Inten    --      0.7682                 0.5325                 6.1200

                     10                     11                     12
                      A                      A                      A
 Frequencies --    304.6539               350.8508               395.0978
 Red. masses --      3.8329                 3.5332                 3.6796
 Frc consts  --      0.2096                 0.2563                 0.3384
 IR Inten    --      2.7243                 6.4043                 2.8503

                     13                     14                     15
                      A                      A                      A
 Frequencies --    422.1244               461.6863               499.3008
 Red. masses --      1.2079                 4.0945                 2.4244
 Frc consts  --      0.1268                 0.5142                 0.3561
 IR Inten    --    173.8948                24.9142                 4.1682

                     16                     17                     18
                      A                      A                      A
 Frequencies --    563.4076               586.7752               616.8538
 Red. masses --      4.0707                 1.6997                 2.6548
 Frc consts  --      0.7613                 0.3448                 0.5952
 IR Inten    --     15.5669               106.7418                20.5694

                     19                     20                     21
                      A                      A                      A
 Frequencies --    782.4418               857.4883               918.7258
 Red. masses --      1.2341                 2.2973                 1.2521
 Frc consts  --      0.4451                 0.9952                 0.6227
 IR Inten    --     75.1443                 6.2541                 2.9676

                     22                     23                     24
                      A                      A                      A
 Frequencies --    923.7086               962.2867               999.7899
 Red. masses --      2.5261                 2.7192                 1.7895
 Frc consts  --      1.2699                 1.4836                 1.0539
 IR Inten    --      4.5661                 6.5756                 9.3799

                     25                     26                     27
                      A                      A                      A
 Frequencies --   1006.6289              1041.8480              1100.5794
 Red. masses --      1.5085                 2.4133                 1.8658
 Frc consts  --      0.9006                 1.5433                 1.3315
 IR Inten    --      7.1673                14.7148                11.2479

                     28                     29                     30
                      A                      A                      A
 Frequencies --   1130.2400              1146.9449              1161.9001
 Red. masses --      2.6806                 3.0038                 2.1151
 Frc consts  --      2.0176                 2.3281                 1.6824
 IR Inten    --     34.9389                27.0689                 3.3173

                     31                     32                     33
                      A                      A                      A
 Frequencies --   1177.6777              1230.1445              1282.4241
 Red. masses --      2.0337                 1.2328                 1.4891
 Frc consts  --      1.6618                 1.0992                 1.4429
 IR Inten    --      8.5861                34.2901                46.1678

                     34                     35                     36
                      A                      A                      A
 Frequencies --   1299.2669              1318.1858              1355.2157
 Red. masses --      1.8020                 1.2122                 1.2559
 Frc consts  --      1.7922                 1.2410                 1.3590
 IR Inten    --     45.1209                 8.7336                 4.5057

                     37                     38                     39
                      A                      A                      A
 Frequencies --   1368.4747              1396.7310              1407.0892
 Red. masses --      1.3052                 1.3424                 1.3633
 Frc consts  --      1.4401                 1.5430                 1.5903
 IR Inten    --      7.4985                 9.8256                 6.4439

                     40                     41                     42
                      A                      A                      A
 Frequencies --   1424.9591              1484.5741              1488.6861
 Red. masses --      1.4704                 1.1448                 1.0745
 Frc consts  --      1.7591                 1.4865                 1.4030
 IR Inten    --     22.9010                18.5520                 6.2240

                     43                     44                     45
                      A                      A                      A
 Frequencies --   1492.0106              1508.9446              1512.5416
 Red. masses --      1.0676                 1.1088                 1.0720
 Frc consts  --      1.4003                 1.4875                 1.4449
 IR Inten    --      3.4983                18.1661                 5.0910

                     46                     47                     48
                      A                      A                      A
 Frequencies --   1627.1283              1761.7366              2367.8952
 Red. masses --      1.1938                 6.5997                12.6237
 Frc consts  --      1.8621                12.0685                41.7025
 IR Inten    --     31.8194               459.0158                 4.3165

                     49                     50                     51
                      A                      A                      A
 Frequencies --   2930.7622              2937.8739              2950.7357
 Red. masses --      1.0724                 1.0756                 1.0766
 Frc consts  --      5.4272                 5.4696                 5.5229
 IR Inten    --     44.7509                 0.7688                95.9745

                     52                     53                     54
                      A                      A                      A
 Frequencies --   3009.7437              3033.8102              3045.6842
 Red. masses --      1.0859                 1.0351                 1.0848
 Frc consts  --      5.7956                 5.6130                 5.9290
 IR Inten    --     53.5157                20.9646                 4.4953

                     55                     56                     57
                      A                      A                      A
 Frequencies --   3049.0653              3105.9305              3111.5673
 Red. masses --      1.0893                 1.1015                 1.1012
 Frc consts  --      5.9665                 6.2607                 6.2817
 IR Inten    --     32.2644                34.0154                25.3964

                     58                     59                     60
                      A                      A                      A
 Frequencies --   3529.3348              3575.7542              3697.3803
 Red. masses --      1.0736                 1.0465                 1.0998
 Frc consts  --      7.8792                 7.8839                 8.8585
 IR Inten    --      1.7355                32.4330                26.0435

 - Thermochemistry -
 -------------------
 Temperature   298.150 Kelvin.  Pressure   1.00000 Atm.
 Atom     1 has atomic number  6 and mass  12.00000

 Molecular mass:   140.10620 amu.
 Principal axes and moments of inertia in atomic units:
                           1         2         3
     Eigenvalues --   466.233264189.062434482.29948
           X            0.99997  -0.00121   0.00795
           Y            0.00124   0.99999  -0.00442
           Z           -0.00795   0.00443   0.99996
 This molecule is an asymmetric top.
 Rotational symmetry number  1.
 Warning -- assumption of classical behavior for rotation
           may cause significant error
 Rotational temperatures (Kelvin)      0.18577     0.02068     0.01932
 Rotational constants (GHZ):           3.87090     0.43082     0.40264
 Zero-point vibrational energy     490641.7 (Joules/Mol)
                                  117.26617 (Kcal/Mol)
 Warning -- explicit consideration of  18 degrees of freedom as
           vibrations may cause significant error
 Vibrational temperatures:     52.29    82.12   122.45   145.71   180.31
          (Kelvin)            250.56   302.85   357.83   396.77   438.33
                              504.80   568.46   607.34   664.26   718.38
                              810.62   844.24   887.52  1125.76  1233.73
                             1321.84  1329.01  1384.52  1438.47  1448.31
                             1498.99  1583.49  1626.16  1650.20  1671.72
                             1694.42  1769.90  1845.12  1869.36  1896.58
                             1949.85  1968.93  2009.58  2024.49  2050.20
                             2135.97  2141.89  2146.67  2171.03  2176.21
                             2341.07  2534.75  3406.87  4216.71  4226.95
                             4245.45  4330.35  4364.98  4382.06  4386.92
                             4468.74  4476.85  5077.93  5144.71  5319.71

 Zero-point correction=                           0.186876 (Hartree/Particle)
 Thermal correction to Energy=                    0.198633
 Thermal correction to Enthalpy=                  0.199577
 Thermal correction to Gibbs Free Energy=         0.148245
 Sum of electronic and zero-point Energies=           -454.678127
 Sum of electronic and thermal Energies=              -454.666370
 Sum of electronic and thermal Enthalpies=            -454.665426
 Sum of electronic and thermal Free Energies=         -454.716758

                     E (Thermal)             CV                S
                      KCal/Mol        Cal/Mol-Kelvin    Cal/Mol-Kelvin
 Total                  124.644             41.383            108.037
 Electronic               0.000              0.000              0.000
 Translational            0.889              2.981             40.723
 Rotational               0.889              2.981             30.549
 Vibrational            122.867             35.421             36.764
 Vibration     1          0.594              1.982              5.449
 Vibration     2          0.596              1.975              4.556
 Vibration     3          0.601              1.960              3.769
 Vibration     4          0.604              1.948              3.430
 Vibration     5          0.610              1.928              3.017
 Vibration     6          0.627              1.874              2.390
 Vibration     7          0.643              1.825              2.039
 Vibration     8          0.662              1.765              1.740
 Vibration     9          0.677              1.718              1.560
 Vibration    10          0.696              1.665              1.391
 Vibration    11          0.728              1.574              1.162
 Vibration    12          0.762              1.481              0.981
 Vibration    13          0.784              1.422              0.885
 Vibration    14          0.819              1.335              0.761
 Vibration    15          0.855              1.252              0.660
 Vibration    16          0.919              1.110              0.517
 Vibration    17          0.944              1.060              0.473
 Vibration    18          0.977              0.996              0.422

 Optimization completed.
    -- Stationary point found.
 Normal termination of Gaussian 16 at Mon May 31 21:18:23 2021.
