 Gaussian 16, Revision A.03,
 Gaussian 16:  ES64L-G16RevA.03 25-Dec-2016

 -----------------------------
 # opt freq b3lyp/6-31g(2df,p)
 -----------------------------

 -------------------
 Title Card Required
 -------------------
 Symbolic Z-matrix:
 Charge =  0 Multiplicity = 1

 SCF Done:  E(RB3LYP) =  -417.960511014     A.U. after   13 cycles
 SCF Done:  E(RB3LYP) =  -417.970006914     A.U. after   11 cycles
 SCF Done:  E(RB3LYP) =  -417.971545700     A.U. after   11 cycles
 SCF Done:  E(RB3LYP) =  -417.973813248     A.U. after   12 cycles
 SCF Done:  E(RB3LYP) =  -417.974771827     A.U. after   11 cycles
 SCF Done:  E(RB3LYP) =  -417.975654892     A.U. after   12 cycles
 SCF Done:  E(RB3LYP) =  -417.975992485     A.U. after   11 cycles
 SCF Done:  E(RB3LYP) =  -417.976281302     A.U. after   11 cycles
 SCF Done:  E(RB3LYP) =  -417.976419750     A.U. after   11 cycles
 SCF Done:  E(RB3LYP) =  -417.976584414     A.U. after   11 cycles
 SCF Done:  E(RB3LYP) =  -417.981365796     A.U. after   12 cycles
 SCF Done:  E(RB3LYP) =  -417.981797379     A.U. after   11 cycles
 SCF Done:  E(RB3LYP) =  -417.982060807     A.U. after   11 cycles
 SCF Done:  E(RB3LYP) =  -417.982156846     A.U. after   10 cycles
 SCF Done:  E(RB3LYP) =  -417.982166209     A.U. after    9 cycles
 SCF Done:  E(RB3LYP) =  -417.982168303     A.U. after    8 cycles
 SCF Done:  E(RB3LYP) =  -417.982169687     A.U. after    8 cycles
 SCF Done:  E(RB3LYP) =  -417.982170001     A.U. after    7 cycles
 SCF Done:  E(RB3LYP) =  -417.982170076     A.U. after    6 cycles
 Optimization completed.
    -- Stationary point found.
 Normal termination of Gaussian 16 at Mon May 31 17:16:04 2021.

 ----------------------------------------------------------------------
 #N Geom=AllCheck Guess=TCheck SCRF=Check GenChk RB3LYP/6-31G(2df,p) Fr
 eq
 ----------------------------------------------------------------------

 Structure from the checkpoint file:  "CCpCppNpNCNCdN.chk"
 -------------------
 Title Card Required
 -------------------
 Charge =  0 Multiplicity = 1

                         Standard orientation:
 ---------------------------------------------------------------------
 Center     Atomic      Atomic             Coordinates (Angstroms)
 Number     Number       Type             X           Y           Z
 ---------------------------------------------------------------------
      1          6           0       -2.446322    1.439285    0.264122
      2          6           0       -1.725003    0.102204    0.015030
      3          6           0       -2.128928   -0.918946    1.097991
      4          7           0       -2.045239   -0.484622   -1.293876
      5          7           0       -0.285458    0.399994   -0.019934
      6          6           0        0.629199   -0.732641   -0.119448
      7          7           0        1.950592   -0.303439   -0.523946
      8          6           0        2.968321   -0.076359    0.370459
      9          7           0        4.078882    0.527883    0.202189
     10          1           0       -3.530814    1.302113    0.214818
     11          1           0       -2.149605    2.171986   -0.492294
     12          1           0       -2.207698    1.852825    1.251293
     13          1           0       -3.215046   -1.062979    1.115912
     14          1           0       -1.824522   -0.568209    2.088934
     15          1           0       -1.666459   -1.891277    0.911583
     16          1           0       -1.898638    0.217831   -2.013948
     17          1           0       -3.025772   -0.746982   -1.325914
     18          1           0       -0.032079    0.987171    0.767995
     19          1           0        0.207571   -1.413519   -0.863098
     20          1           0        0.757289   -1.297353    0.817018
     21          1           0        1.987786    0.213915   -1.391597
     22          1           0        2.768716   -0.529829    1.346364
     23          1           0        4.154231    0.904341   -0.747021
 ---------------------------------------------------------------------

 SCF Done:  E(RB3LYP) =  -417.982170076     A.U. after    1 cycles

 The electronic state is 1-A.
 Alpha  occ. eigenvalues --  -14.34166 -14.31729 -14.31384 -14.27818 -10.25063
 Alpha  occ. eigenvalues --  -10.23859 -10.23746 -10.18039 -10.17947  -0.95641
 Alpha  occ. eigenvalues --   -0.92370  -0.86363  -0.83069  -0.74727  -0.69896
 Alpha  occ. eigenvalues --   -0.66084  -0.61304  -0.57901  -0.51237  -0.50249
 Alpha  occ. eigenvalues --   -0.49555  -0.46900  -0.44214  -0.43216  -0.42088
 Alpha  occ. eigenvalues --   -0.40186  -0.39572  -0.38794  -0.37391  -0.36946
 Alpha  occ. eigenvalues --   -0.35426  -0.34218  -0.25328  -0.25026  -0.23477
 Alpha  occ. eigenvalues --   -0.21952
 Alpha virt. eigenvalues --    0.04752   0.05796   0.08883   0.11212   0.11725
 Alpha virt. eigenvalues --    0.12074   0.12718   0.14370   0.15514   0.15775
 Alpha virt. eigenvalues --    0.16320   0.17992   0.18580   0.18937   0.20047

 Mulliken charges:
               1
     1  C   -0.413554
     2  C    0.253299
     3  C   -0.393233
     4  N   -0.501902
     5  N   -0.302821
     6  C   -0.127170
     7  N   -0.258147
     8  C    0.124092
     9  N   -0.490171
    10  H    0.109885
    11  H    0.117877
    12  H    0.110164
    13  H    0.108671
    14  H    0.111071
    15  H    0.127306
    16  H    0.224838
    17  H    0.222994
    18  H    0.213264
    19  H    0.136422
    20  H    0.099001
    21  H    0.231323
    22  H    0.102342
    23  H    0.194448
 Sum of Mulliken charges =   0.00000

 Dipole moment (field-independent basis, Debye):
    X=             -4.5265    Y=              0.1945    Z=             -0.7541  Tot=              4.5930
 Quadrupole moment (field-independent basis, Debye-Ang):
   XX=            -70.4520   YY=            -57.8114   ZZ=            -52.7284
   XY=             -1.9394   XZ=             -4.5996   YZ=             -2.8667

  Exact polarizability: 110.940   7.324  72.453   1.127  -2.940  76.717
 Approx polarizability: 140.818  15.643 107.147   4.374  -2.303 114.909

                      1                      2                      3
                      A                      A                      A
 Frequencies --     45.7261                48.7379               110.6328
 Red. masses --      5.2761                 3.6539                 2.0807
 Frc consts  --      0.0065                 0.0051                 0.0150
 IR Inten    --      2.8027                 1.5703                 2.2082

                      4                      5                      6
                      A                      A                      A
 Frequencies --    176.4545               184.5668               224.7912
 Red. masses --      2.0454                 3.4294                 1.0401
 Frc consts  --      0.0375                 0.0688                 0.0310
 IR Inten    --      9.7241                 1.4844                 5.3905

                      7                      8                      9
                      A                      A                      A
 Frequencies --    264.7899               287.4838               306.3972
 Red. masses --      1.0638                 1.0863                 2.9578
 Frc consts  --      0.0439                 0.0529                 0.1636
 IR Inten    --     11.1710                24.1863                 3.2358

                     10                     11                     12
                      A                      A                      A
 Frequencies --    331.6103               357.5572               380.2335
 Red. masses --      2.3936                 2.6446                 2.4957
 Frc consts  --      0.1551                 0.1992                 0.2126
 IR Inten    --      5.8436                 8.3745                 4.4904

                     13                     14                     15
                      A                      A                      A
 Frequencies --    461.8035               480.5099               511.7924
 Red. masses --      2.1926                 2.3437                 2.5414
 Frc consts  --      0.2755                 0.3188                 0.3922
 IR Inten    --      4.1906                 2.7425                21.4235

                     16                     17                     18
                      A                      A                      A
 Frequencies --    561.4009               625.0555               739.5981
 Red. masses --      1.5270                 2.7901                 1.5201
 Frc consts  --      0.2836                 0.6423                 0.4899
 IR Inten    --     45.0920                 6.6306                75.4407

                     19                     20                     21
                      A                      A                      A
 Frequencies --    782.9016               831.4813               886.5484
 Red. masses --      2.9936                 1.9563                 1.5377
 Frc consts  --      1.0811                 0.7969                 0.7121
 IR Inten    --     22.1935                42.8762               118.2694

                     22                     23                     24
                      A                      A                      A
 Frequencies --    913.6367               921.7749               959.9498
 Red. masses --      1.5054                 1.9765                 1.6514
 Frc consts  --      0.7403                 0.9895                 0.8966
 IR Inten    --      3.2299                 3.2450                 5.7102

                     25                     26                     27
                      A                      A                      A
 Frequencies --   1004.7966              1016.6795              1083.5518
 Red. masses --      1.7489                 1.3683                 2.8433
 Frc consts  --      1.0403                 0.8333                 1.9668
 IR Inten    --      2.3364                 5.5436                73.0618

                     28                     29                     30
                      A                      A                      A
 Frequencies --   1085.0475              1099.5143              1131.8677
 Red. masses --      1.1725                 1.6830                 1.7996
 Frc consts  --      0.8133                 1.1988                 1.3583
 IR Inten    --     34.1396                77.2137                74.2500

                     31                     32                     33
                      A                      A                      A
 Frequencies --   1183.2029              1207.5696              1248.3700
 Red. masses --      2.3855                 1.7171                 2.2746
 Frc consts  --      1.9677                 1.4753                 2.0886
 IR Inten    --     56.6796                47.5968                36.9505

                     34                     35                     36
                      A                      A                      A
 Frequencies --   1277.9472              1327.5162              1345.3181
 Red. masses --      2.1094                 1.7819                 1.6569
 Frc consts  --      2.0297                 1.8501                 1.7668
 IR Inten    --     96.2884                89.0973               107.9855

                     37                     38                     39
                      A                      A                      A
 Frequencies --   1391.8349              1397.0696              1412.2555
 Red. masses --      1.2684                 1.2364                 1.2492
 Frc consts  --      1.4477                 1.4218                 1.4679
 IR Inten    --      5.2277                11.4850                 9.1529

                     40                     41                     42
                      A                      A                      A
 Frequencies --   1427.6312              1471.4279              1478.4949
 Red. masses --      1.2063                 1.2452                 1.1698
 Frc consts  --      1.4486                 1.5884                 1.5066
 IR Inten    --      2.7442                 4.0202                20.3245

                     43                     44                     45
                      A                      A                      A
 Frequencies --   1481.7807              1486.3227              1507.2866
 Red. masses --      1.1197                 1.1187                 1.0875
 Frc consts  --      1.4485                 1.4562                 1.4557
 IR Inten    --      0.8465                20.8024                 0.5831

                     46                     47                     48
                      A                      A                      A
 Frequencies --   1512.0624              1518.5694              1639.8846
 Red. masses --      1.1344                 1.0907                 1.1059
 Frc consts  --      1.5282                 1.4819                 1.7522
 IR Inten    --     24.3812                 1.1432                30.2658

                     49                     50                     51
                      A                      A                      A
 Frequencies --   1725.3219              2982.9466              3024.8705
 Red. masses --      5.9645                 1.0702                 1.0365
 Frc consts  --     10.4607                 5.6103                 5.5877
 IR Inten    --    390.9086                43.7798                18.4067

                     52                     53                     54
                      A                      A                      A
 Frequencies --   3034.8883              3090.0994              3092.3661
 Red. masses --      1.0373                 1.0864                 1.0988
 Frc consts  --      5.6290                 6.1118                 6.1911
 IR Inten    --     19.4618                28.4300                 5.5219

                     55                     56                     57
                      A                      A                      A
 Frequencies --   3095.0648              3100.2598              3114.6307
 Red. masses --      1.0918                 1.0994                 1.1026
 Frc consts  --      6.1624                 6.2258                 6.3022
 IR Inten    --      9.0303                46.9657                28.8230

                     58                     59                     60
                      A                      A                      A
 Frequencies --   3123.9584              3424.3242              3485.7682
 Red. masses --      1.1014                 1.0735                 1.0490
 Frc consts  --      6.3328                 7.4162                 7.5097
 IR Inten    --     21.9807                 8.4933                 0.1171

                     61                     62                     63
                      A                      A                      A
 Frequencies --   3525.9163              3572.6178              3590.7780
 Red. masses --      1.0741                 1.0924                 1.0748
 Frc consts  --      7.8678                 8.2146                 8.1650
 IR Inten    --      0.1032                 0.1775                10.6744

 - Thermochemistry -
 -------------------
 Temperature   298.150 Kelvin.  Pressure   1.00000 Atm.
 Atom     1 has atomic number  6 and mass  12.00000

 Molecular mass:   130.12185 amu.
 Principal axes and moments of inertia in atomic units:
                           1         2         3
     Eigenvalues --   497.402562727.105292762.59235
           X            0.99996  -0.00630  -0.00696
           Y            0.00403   0.95755  -0.28825
           Z            0.00848   0.28821   0.95753
 This molecule is an asymmetric top.
 Rotational symmetry number  1.
 Warning -- assumption of classical behavior for rotation
           may cause significant error
 Rotational temperatures (Kelvin)      0.17413     0.03176     0.03135
 Rotational constants (GHZ):           3.62833     0.66178     0.65328
 Zero-point vibrational energy     539008.9 (Joules/Mol)
                                  128.82621 (Kcal/Mol)
 Warning -- explicit consideration of  16 degrees of freedom as
           vibrations may cause significant error
 Vibrational temperatures:     65.79    70.12   159.18   253.88   265.55
          (Kelvin)            323.42   380.97   413.63   440.84   477.11
                              514.45   547.07   664.43   691.35   736.36
                              807.73   899.32  1064.12  1126.42  1196.32
                             1275.55  1314.52  1326.23  1381.15  1445.68
                             1462.78  1558.99  1561.14  1581.96  1628.51
                             1702.37  1737.42  1796.13  1838.68  1910.00
                             1935.61  2002.54  2010.07  2031.92  2054.04
                             2117.06  2127.22  2131.95  2138.49  2168.65
                             2175.52  2184.88  2359.43  2482.35  4291.79
                             4352.11  4366.53  4445.96  4449.23  4453.11
                             4460.58  4481.26  4494.68  4926.84  5015.24
                             5073.01  5140.20  5166.33

 Zero-point correction=                           0.205298 (Hartree/Particle)
 Thermal correction to Energy=                    0.216420
 Thermal correction to Enthalpy=                  0.217364
 Thermal correction to Gibbs Free Energy=         0.168509
 Sum of electronic and zero-point Energies=           -417.776872
 Sum of electronic and thermal Energies=              -417.765750
 Sum of electronic and thermal Enthalpies=            -417.764806
 Sum of electronic and thermal Free Energies=         -417.813661

                     E (Thermal)             CV                S
                      KCal/Mol        Cal/Mol-Kelvin    Cal/Mol-Kelvin
 Total                  135.806             40.948            102.823
 Electronic               0.000              0.000              0.000
 Translational            0.889              2.981             40.503
 Rotational               0.889              2.981             29.706
 Vibrational            134.028             34.986             32.614
 Vibration     1          0.595              1.979              4.994
 Vibration     2          0.595              1.978              4.868
 Vibration     3          0.606              1.941              3.258
 Vibration     4          0.628              1.871              2.366
 Vibration     5          0.631              1.861              2.282
 Vibration     6          0.649              1.803              1.920
 Vibration     7          0.671              1.738              1.630
 Vibration     8          0.685              1.697              1.489
 Vibration     9          0.697              1.662              1.382
 Vibration    10          0.714              1.612              1.252
 Vibration    11          0.733              1.560              1.133
 Vibration    12          0.750              1.512              1.038
 Vibration    13          0.820              1.335              0.761
 Vibration    14          0.837              1.293              0.709
 Vibration    15          0.867              1.224              0.629
 Vibration    16          0.917              1.115              0.521

 Optimization completed.
    -- Stationary point found.
 Normal termination of Gaussian 16 at Mon May 31 17:48:35 2021.
