 Gaussian 16, Revision A.03,
 Gaussian 16:  ES64L-G16RevA.03 25-Dec-2016

 -----------------------------
 # opt freq b3lyp/6-31g(2df,p)
 -----------------------------

 -------------------
 Title Card Required
 -------------------
 Symbolic Z-matrix:
 Charge =  0 Multiplicity = 1

 SCF Done:  E(RB3LYP) =  -421.751059059     A.U. after   13 cycles
 SCF Done:  E(RB3LYP) =  -421.756271971     A.U. after   14 cycles
 SCF Done:  E(RB3LYP) =  -421.761311180     A.U. after   13 cycles
 SCF Done:  E(RB3LYP) =  -421.762457600     A.U. after   13 cycles
 SCF Done:  E(RB3LYP) =  -421.765014247     A.U. after   13 cycles
 SCF Done:  E(RB3LYP) =  -421.766251329     A.U. after   13 cycles
 SCF Done:  E(RB3LYP) =  -421.767440091     A.U. after   13 cycles
 SCF Done:  E(RB3LYP) =  -421.767768105     A.U. after   13 cycles
 SCF Done:  E(RB3LYP) =  -421.768119487     A.U. after   12 cycles
 SCF Done:  E(RB3LYP) =  -421.768382435     A.U. after   13 cycles
 SCF Done:  E(RB3LYP) =  -421.768457765     A.U. after   13 cycles
 SCF Done:  E(RB3LYP) =  -421.768595070     A.U. after   11 cycles
 SCF Done:  E(RB3LYP) =  -421.768628611     A.U. after   10 cycles
 SCF Done:  E(RB3LYP) =  -421.768653105     A.U. after   13 cycles
 SCF Done:  E(RB3LYP) =  -421.768667100     A.U. after   10 cycles
 SCF Done:  E(RB3LYP) =  -421.768668289     A.U. after    8 cycles
 SCF Done:  E(RB3LYP) =  -421.768668950     A.U. after    8 cycles
 SCF Done:  E(RB3LYP) =  -421.768669144     A.U. after    8 cycles
 Optimization completed.
    -- Stationary point found.
 Normal termination of Gaussian 16 at Tue Jun  1 13:00:01 2021.

 ----------------------------------------------------------------------
 #N Geom=AllCheck Guess=TCheck SCRF=Check GenChk RB3LYP/6-31G(2df,p) Fr
 eq
 ----------------------------------------------------------------------

 Structure from the checkpoint file:  "CCpCCdOpCNpCpN.chk"
 -------------------
 Title Card Required
 -------------------
 Charge =  0 Multiplicity = 1

                         Standard orientation:
 ---------------------------------------------------------------------
 Center     Atomic      Atomic             Coordinates (Angstroms)
 Number     Number       Type             X           Y           Z
 ---------------------------------------------------------------------
      1          6           0        1.043678    1.957500   -0.289768
      2          6           0        0.387881    0.568673   -0.232917
      3          6           0        1.298894   -0.419411    0.531604
      4          6           0        2.556563   -0.749557   -0.238653
      5          8           0        3.681259   -0.610825    0.167988
      6          6           0       -1.032637    0.656969    0.376184
      7          7           0       -2.043306   -0.130648   -0.333501
      8          6           0       -1.836825   -1.568479   -0.268036
      9          7           0       -3.363733    0.144578    0.138999
     10          1           0        2.058510    1.908185   -0.696961
     11          1           0        1.115076    2.396434    0.712304
     12          1           0        0.460831    2.639772   -0.915913
     13          1           0        0.266737    0.208284   -1.262975
     14          1           0        0.767584   -1.366045    0.696120
     15          1           0        1.581203   -0.018529    1.510481
     16          1           0        2.366328   -1.151217   -1.263546
     17          1           0       -1.371237    1.697423    0.326088
     18          1           0       -1.000192    0.390669    1.453554
     19          1           0       -0.903086   -1.838755   -0.768280
     20          1           0       -2.663096   -2.059363   -0.784219
     21          1           0       -1.798847   -1.954567    0.769419
     22          1           0       -3.616590    1.071182   -0.193864
     23          1           0       -3.369340    0.191452    1.164924
 ---------------------------------------------------------------------

 SCF Done:  E(RB3LYP) =  -421.768669144     A.U. after    1 cycles

 The electronic state is 1-A.
 Alpha  occ. eigenvalues --  -19.13979 -14.34904 -14.33836 -10.27172 -10.21271
 Alpha  occ. eigenvalues --  -10.20556 -10.20170 -10.19499 -10.18378  -1.04641
 Alpha  occ. eigenvalues --   -0.97317  -0.82847  -0.78499  -0.72833  -0.69974
 Alpha  occ. eigenvalues --   -0.62755  -0.58245  -0.57483  -0.50462  -0.50061
 Alpha  occ. eigenvalues --   -0.47561  -0.46265  -0.45792  -0.43097  -0.42373
 Alpha  occ. eigenvalues --   -0.40985  -0.39969  -0.38508  -0.38494  -0.36913
 Alpha  occ. eigenvalues --   -0.35667  -0.34179  -0.33463  -0.25942  -0.24895
 Alpha  occ. eigenvalues --   -0.22456
 Alpha virt. eigenvalues --   -0.02215   0.07043   0.08954   0.09922   0.11362
 Alpha virt. eigenvalues --    0.12181   0.13631   0.13792   0.15053   0.15285
 Alpha virt. eigenvalues --    0.16489   0.16930   0.17667   0.18401   0.19291

 Mulliken charges:
               1
     1  C   -0.406630
     2  C    0.014048
     3  C   -0.280637
     4  C    0.160255
     5  O   -0.241050
     6  C   -0.143824
     7  N   -0.070196
     8  C   -0.288941
     9  N   -0.462655
    10  H    0.129170
    11  H    0.121878
    12  H    0.119740
    13  H    0.094309
    14  H    0.119298
    15  H    0.117458
    16  H    0.070275
    17  H    0.092398
    18  H    0.070681
    19  H    0.113818
    20  H    0.134820
    21  H    0.085930
    22  H    0.239735
    23  H    0.210123
 Sum of Mulliken charges =   0.00000

 Dipole moment (field-independent basis, Debye):
    X=             -2.0569    Y=              0.8824    Z=              0.4943  Tot=              2.2921
 Quadrupole moment (field-independent basis, Debye-Ang):
   XX=            -73.8486   YY=            -53.1927   ZZ=            -55.7414
   XY=             -2.1341   XZ=             -4.8368   YZ=              0.6507

  Exact polarizability: 102.186  -1.143  79.749  -0.609   1.893  72.008
 Approx polarizability: 133.854  -1.784 109.905   3.455   2.582 114.129

                      1                      2                      3
                      A                      A                      A
 Frequencies --     50.4263                54.1173                76.6326
 Red. masses --      4.3873                 3.7641                 2.5597
 Frc consts  --      0.0066                 0.0065                 0.0089
 IR Inten    --      6.1995                 2.4036                 1.7278

                      4                      5                      6
                      A                      A                      A
 Frequencies --     86.8412               196.7002               233.3819
 Red. masses --      3.0023                 2.2857                 1.7991
 Frc consts  --      0.0133                 0.0521                 0.0577
 IR Inten    --      1.9422                 1.1880                 1.3504

                      7                      8                      9
                      A                      A                      A
 Frequencies --    260.8911               276.8566               300.7859
 Red. masses --      1.4845                 1.2323                 3.0385
 Frc consts  --      0.0595                 0.0557                 0.1620
 IR Inten    --      2.8850                 1.3018                 3.5774

                     10                     11                     12
                      A                      A                      A
 Frequencies --    311.5004               333.6603               388.1140
 Red. masses --      1.3029                 2.0387                 1.7354
 Frc consts  --      0.0745                 0.1337                 0.1540
 IR Inten    --     27.6043                 1.3661                 1.1684

                     13                     14                     15
                      A                      A                      A
 Frequencies --    415.0824               502.6100               510.7435
 Red. masses --      2.1187                 2.3565                 2.5626
 Frc consts  --      0.2151                 0.3507                 0.3939
 IR Inten    --      2.4293                 3.3306                15.9214

                     16                     17                     18
                      A                      A                      A
 Frequencies --    537.5516               777.0401               835.9576
 Red. masses --      3.1156                 1.7635                 3.8267
 Frc consts  --      0.5304                 0.6273                 1.5756
 IR Inten    --      9.3715                 0.5672                24.6713

                     19                     20                     21
                      A                      A                      A
 Frequencies --    891.3399               932.7899               950.6228
 Red. masses --      1.8534                 1.7986                 1.9915
 Frc consts  --      0.8676                 0.9220                 1.0603
 IR Inten    --      3.2990                 4.6352                51.0048

                     22                     23                     24
                      A                      A                      A
 Frequencies --    970.3817               978.6449              1022.2121
 Red. masses --      1.5677                 1.6208                 2.4826
 Frc consts  --      0.8698                 0.9146                 1.5284
 IR Inten    --      1.0627                15.9802                14.2779

                     25                     26                     27
                      A                      A                      A
 Frequencies --   1057.6174              1121.2518              1128.1770
 Red. masses --      1.8890                 1.8440                 1.9811
 Frc consts  --      1.2449                 1.3659                 1.4857
 IR Inten    --     56.1623                15.3887                18.2684

                     28                     29                     30
                      A                      A                      A
 Frequencies --   1148.3281              1159.5287              1213.3738
 Red. masses --      1.6583                 1.8358                 1.4955
 Frc consts  --      1.2884                 1.4542                 1.2972
 IR Inten    --      2.2277                 1.2173                11.9104

                     31                     32                     33
                      A                      A                      A
 Frequencies --   1220.6922              1238.8486              1268.1167
 Red. masses --      1.8296                 1.9530                 1.4177
 Frc consts  --      1.6063                 1.7660                 1.3433
 IR Inten    --      2.1695                14.1956                 4.1805

                     34                     35                     36
                      A                      A                      A
 Frequencies --   1299.3061              1335.8534              1355.7037
 Red. masses --      1.2247                 1.3823                 1.4083
 Frc consts  --      1.2181                 1.4533                 1.5250
 IR Inten    --      6.8371                 8.7817                 5.0315

                     37                     38                     39
                      A                      A                      A
 Frequencies --   1372.4155              1406.2286              1418.6523
 Red. masses --      1.4228                 1.3351                 1.2262
 Frc consts  --      1.5790                 1.5555                 1.4540
 IR Inten    --     12.9215                 5.4390                 6.5792

                     40                     41                     42
                      A                      A                      A
 Frequencies --   1429.6306              1446.9881              1463.0360
 Red. masses --      1.1908                 1.1827                 1.0996
 Frc consts  --      1.4339                 1.4590                 1.3867
 IR Inten    --      3.9516                 3.1486                 5.6002

                     43                     44                     45
                      A                      A                      A
 Frequencies --   1486.7146              1494.7366              1500.0534
 Red. masses --      1.0591                 1.0564                 1.0516
 Frc consts  --      1.3793                 1.3906                 1.3942
 IR Inten    --      6.2598                 8.2475                 0.3314

                     46                     47                     48
                      A                      A                      A
 Frequencies --   1500.5429              1505.0799              1668.1260
 Red. masses --      1.0502                 1.0711                 1.0841
 Frc consts  --      1.3933                 1.4296                 1.7774
 IR Inten    --      4.7808                 7.8598                16.1961

                     49                     50                     51
                      A                      A                      A
 Frequencies --   1834.4082              2839.2410              2884.7662
 Red. masses --     10.1604                 1.0811                 1.0728
 Frc consts  --     20.1443                 5.1348                 5.2600
 IR Inten    --    184.8549               100.2272                51.3819

                     52                     53                     54
                      A                      A                      A
 Frequencies --   2919.0998              3021.5112              3028.1196
 Red. masses --      1.0616                 1.0808                 1.0486
 Frc consts  --      5.3297                 5.8134                 5.6651
 IR Inten    --     78.7448                 9.3901                21.2453

                     55                     56                     57
                      A                      A                      A
 Frequencies --   3030.9468              3052.3441              3082.6239
 Red. masses --      1.0494                 1.0865                 1.0718
 Frc consts  --      5.6803                 5.9643                 6.0007
 IR Inten    --      9.1487                27.8555                23.3899

                     58                     59                     60
                      A                      A                      A
 Frequencies --   3090.3853              3097.2196              3108.5247
 Red. masses --      1.0996                 1.0998                 1.1021
 Frc consts  --      6.1874                 6.2159                 6.2748
 IR Inten    --     12.9596                33.9029                26.8923

                     61                     62                     63
                      A                      A                      A
 Frequencies --   3137.9712              3339.5568              3523.9788
 Red. masses --      1.1009                 1.0580                 1.0816
 Frc consts  --      6.3868                 6.9521                 7.9140
 IR Inten    --     19.7041                25.0191                 0.5764

 - Thermochemistry -
 -------------------
 Temperature   298.150 Kelvin.  Pressure   1.00000 Atm.
 Atom     1 has atomic number  6 and mass  12.00000

 Molecular mass:   130.11061 amu.
 Principal axes and moments of inertia in atomic units:
                           1         2         3
     Eigenvalues --   568.270352419.453662817.56428
           X            0.99987   0.01421  -0.00815
           Y           -0.01415   0.99988   0.00697
           Z            0.00825  -0.00685   0.99994
 This molecule is an asymmetric top.
 Rotational symmetry number  1.
 Warning -- assumption of classical behavior for rotation
           may cause significant error
 Rotational temperatures (Kelvin)      0.15242     0.03580     0.03074
 Rotational constants (GHZ):           3.17585     0.74593     0.64053
 Zero-point vibrational energy     533083.4 (Joules/Mol)
                                  127.40999 (Kcal/Mol)
 Warning -- explicit consideration of  16 degrees of freedom as
           vibrations may cause significant error
 Vibrational temperatures:     72.55    77.86   110.26   124.95   283.01
          (Kelvin)            335.78   375.36   398.33   432.76   448.18
                              480.06   558.41   597.21   723.14   734.85
                              773.42  1117.99  1202.76  1282.44  1342.08
                             1367.73  1396.16  1408.05  1470.74  1521.68
                             1613.23  1623.20  1652.19  1668.30  1745.77
                             1756.30  1782.43  1824.54  1869.41  1922.00
                             1950.56  1974.60  2023.25  2041.12  2056.92
                             2081.89  2104.98  2139.05  2150.59  2158.24
                             2158.95  2165.47  2400.06  2639.30  4085.03
                             4150.54  4199.93  4347.28  4356.79  4360.86
                             4391.64  4435.21  4446.38  4456.21  4472.47
                             4514.84  4804.88  5070.22

 Zero-point correction=                           0.203041 (Hartree/Particle)
 Thermal correction to Energy=                    0.214218
 Thermal correction to Enthalpy=                  0.215162
 Thermal correction to Gibbs Free Energy=         0.165671
 Sum of electronic and zero-point Energies=           -421.565628
 Sum of electronic and thermal Energies=              -421.554451
 Sum of electronic and thermal Enthalpies=            -421.553507
 Sum of electronic and thermal Free Energies=         -421.602998

                     E (Thermal)             CV                S
                      KCal/Mol        Cal/Mol-Kelvin    Cal/Mol-Kelvin
 Total                  134.424             39.768            104.164
 Electronic               0.000              0.000              0.000
 Translational            0.889              2.981             40.503
 Rotational               0.889              2.981             29.739
 Vibrational            132.647             33.807             33.922
 Vibration     1          0.595              1.977              4.801
 Vibration     2          0.596              1.976              4.661
 Vibration     3          0.599              1.965              3.975
 Vibration     4          0.601              1.958              3.730
 Vibration     5          0.636              1.844              2.164
 Vibration     6          0.654              1.790              1.853
 Vibration     7          0.669              1.744              1.656
 Vibration     8          0.678              1.716              1.553
 Vibration     9          0.693              1.672              1.413
 Vibration    10          0.700              1.652              1.354
 Vibration    11          0.715              1.608              1.242
 Vibration    12          0.756              1.496              1.007
 Vibration    13          0.778              1.437              0.909
 Vibration    14          0.858              1.244              0.652
 Vibration    15          0.866              1.226              0.632
 Vibration    16          0.893              1.167              0.571

 Optimization completed.
    -- Stationary point found.
 Normal termination of Gaussian 16 at Tue Jun  1 13:33:00 2021.
