 Gaussian 16, Revision A.03,
 Gaussian 16:  ES64L-G16RevA.03 25-Dec-2016

 -----------------------------
 # opt freq b3lyp/6-31g(2df,p)
 -----------------------------

 -------------------
 Title Card Required
 -------------------
 Symbolic Z-matrix:
 Charge =  0 Multiplicity = 1

 SCF Done:  E(RB3LYP) =  -403.139180886     A.U. after   12 cycles
 SCF Done:  E(RB3LYP) =  -403.145500575     A.U. after   10 cycles
 SCF Done:  E(RB3LYP) =  -403.146455241     A.U. after   10 cycles
 SCF Done:  E(RB3LYP) =  -403.146772485     A.U. after   10 cycles
 SCF Done:  E(RB3LYP) =  -403.146948862     A.U. after   10 cycles
 SCF Done:  E(RB3LYP) =  -403.147008662     A.U. after    8 cycles
 SCF Done:  E(RB3LYP) =  -403.147050955     A.U. after    9 cycles
 SCF Done:  E(RB3LYP) =  -403.147061048     A.U. after    9 cycles
 SCF Done:  E(RB3LYP) =  -403.147065220     A.U. after    8 cycles
 SCF Done:  E(RB3LYP) =  -403.147066422     A.U. after    7 cycles
 SCF Done:  E(RB3LYP) =  -403.147066932     A.U. after    7 cycles
 SCF Done:  E(RB3LYP) =  -403.147067011     A.U. after    6 cycles
 SCF Done:  E(RB3LYP) =  -403.147067029     A.U. after    5 cycles
 Optimization completed.
    -- Stationary point found.
 Normal termination of Gaussian 16 at Tue Jun  1 11:07:01 2021.

 ----------------------------------------------------------------------
 #N Geom=AllCheck Guess=TCheck SCRF=Check GenChk RB3LYP/6-31G(2df,p) Fr
 eq
 ----------------------------------------------------------------------

 Structure from the checkpoint file:  "CCpCCCNpNCN.chk"
 -------------------
 Title Card Required
 -------------------
 Charge =  0 Multiplicity = 1

                         Standard orientation:
 ---------------------------------------------------------------------
 Center     Atomic      Atomic             Coordinates (Angstroms)
 Number     Number       Type             X           Y           Z
 ---------------------------------------------------------------------
      1          6           0        0.518324    2.258638   -0.066115
      2          6           0        0.666308    0.768251    0.250930
      3          6           0       -0.458516   -0.069709   -0.387450
      4          6           0       -1.845988    0.152565    0.223227
      5          6           0       -2.910512   -0.772049   -0.369139
      6          7           0       -4.226164   -0.486272    0.213674
      7          7           0        1.972802    0.316100   -0.240012
      8          6           0        2.521960   -0.856782    0.417044
      9          7           0        3.852564   -1.091076   -0.133059
     10          1           0       -0.448702    2.645791    0.263050
     11          1           0        0.609170    2.426714   -1.144820
     12          1           0        1.297083    2.843677    0.435878
     13          1           0        0.595673    0.645713    1.350136
     14          1           0       -0.201673   -1.132053   -0.295255
     15          1           0       -0.478467    0.144780   -1.463861
     16          1           0       -2.179597    1.186552    0.084021
     17          1           0       -1.796889   -0.011192    1.310160
     18          1           0       -2.585239   -1.821002   -0.245777
     19          1           0       -2.980566   -0.596049   -1.450116
     20          1           0       -4.217897   -0.725094    1.201902
     21          1           0       -4.928994   -1.084764   -0.210065
     22          1           0        2.657649    1.059474   -0.142251
     23          1           0        1.818525   -1.693616    0.271464
     24          1           0        2.635492   -0.729111    1.511244
     25          1           0        3.766213   -1.344921   -1.113060
     26          1           0        4.294350   -1.871648    0.342145
 ---------------------------------------------------------------------

 SCF Done:  E(RB3LYP) =  -403.147067029     A.U. after    1 cycles

 The electronic state is 1-A.
 Alpha  occ. eigenvalues --  -14.30473 -14.30192 -14.30057 -10.22232 -10.20450
 Alpha  occ. eigenvalues --  -10.19851 -10.17164 -10.16963 -10.16962  -0.91474
 Alpha  occ. eigenvalues --   -0.87204  -0.85009  -0.77291  -0.72341  -0.66007
 Alpha  occ. eigenvalues --   -0.62456  -0.58913  -0.56044  -0.49443  -0.48474
 Alpha  occ. eigenvalues --   -0.47596  -0.46281  -0.43674  -0.42906  -0.42281
 Alpha  occ. eigenvalues --   -0.40027  -0.39255  -0.37443  -0.36478  -0.35771
 Alpha  occ. eigenvalues --   -0.33690  -0.33344  -0.31771  -0.31397  -0.23771
 Alpha  occ. eigenvalues --   -0.23065  -0.21545
 Alpha virt. eigenvalues --    0.08567   0.08913   0.09383   0.11324   0.11803
 Alpha virt. eigenvalues --    0.13088   0.14219   0.14715   0.16002   0.16173
 Alpha virt. eigenvalues --    0.17163   0.17957   0.18257   0.19195   0.19999

 Mulliken charges:
               1
     1  C   -0.410785
     2  C    0.057776
     3  C   -0.162616
     4  C   -0.163329
     5  C   -0.147145
     6  N   -0.509842
     7  N   -0.290330
     8  C   -0.087758
     9  N   -0.514030
    10  H    0.122449
    11  H    0.122719
    12  H    0.108525
    13  H    0.048437
    14  H    0.088969
    15  H    0.096690
    16  H    0.109634
    17  H    0.083965
    18  H    0.074249
    19  H    0.101314
    20  H    0.220047
    21  H    0.223144
    22  H    0.214222
    23  H    0.085004
    24  H    0.076329
    25  H    0.227963
    26  H    0.224402
 Sum of Mulliken charges =  -0.00000

 Dipole moment (field-independent basis, Debye):
    X=             -0.1596    Y=             -1.8304    Z=              0.6845  Tot=              1.9607
 Quadrupole moment (field-independent basis, Debye-Ang):
   XX=            -61.3456   YY=            -54.1606   ZZ=            -57.0709
   XY=              1.8961   XZ=              0.0224   YZ=             -0.0934

  Exact polarizability: 109.424  -1.865  85.235  -0.544  -0.331  78.334
 Approx polarizability: 127.556  -2.211 117.974  -1.041  -1.349 121.382

                      1                      2                      3
                      A                      A                      A
 Frequencies --     43.5149                64.7612                66.7997
 Red. masses --      2.0199                 2.6257                 2.3061
 Frc consts  --      0.0023                 0.0065                 0.0061
 IR Inten    --      1.2507                 2.8576                 0.5036

                      4                      5                      6
                      A                      A                      A
 Frequencies --    102.1003               134.0748               146.0840
 Red. masses --      2.4256                 2.3389                 2.8108
 Frc consts  --      0.0149                 0.0248                 0.0353
 IR Inten    --      3.1138                 1.8264                 3.5510

                      7                      8                      9
                      A                      A                      A
 Frequencies --    185.8808               249.0460               254.5580
 Red. masses --      1.8051                 1.2049                 1.1647
 Frc consts  --      0.0367                 0.0440                 0.0445
 IR Inten    --      1.0626                 2.6340                50.2535

                     10                     11                     12
                      A                      A                      A
 Frequencies --    284.0006               303.5135               309.1746
 Red. masses --      1.3723                 2.6868                 3.4150
 Frc consts  --      0.0652                 0.1458                 0.1923
 IR Inten    --     21.3534                 0.5885                 3.1351

                     13                     14                     15
                      A                      A                      A
 Frequencies --    399.4042               458.0477               488.7002
 Red. masses --      2.7103                 2.6229                 2.7372
 Frc consts  --      0.2547                 0.3242                 0.3852
 IR Inten    --      4.9658                13.3777                12.9265

                     16                     17                     18
                      A                      A                      A
 Frequencies --    566.9014               749.1849               784.5752
 Red. masses --      2.9734                 1.1234                 1.4116
 Frc consts  --      0.5630                 0.3715                 0.5119
 IR Inten    --      2.9500                 2.2864                51.4177

                     19                     20                     21
                      A                      A                      A
 Frequencies --    832.3468               858.6296               872.4274
 Red. masses --      1.2823                 1.6074                 1.3640
 Frc consts  --      0.5234                 0.6982                 0.6117
 IR Inten    --     39.9354                48.3235               162.2263

                     22                     23                     24
                      A                      A                      A
 Frequencies --    891.3996               944.2898               973.5042
 Red. masses --      1.3369                 1.5639                 1.9186
 Frc consts  --      0.6259                 0.8216                 1.0713
 IR Inten    --     43.5861                 0.6996                 2.0809

                     25                     26                     27
                      A                      A                      A
 Frequencies --   1001.2666              1033.5091              1044.4773
 Red. masses --      1.5578                 1.6062                 2.8190
 Frc consts  --      0.9202                 1.0108                 1.8120
 IR Inten    --      2.8865                 8.3343                 1.7779

                     28                     29                     30
                      A                      A                      A
 Frequencies --   1063.3562              1084.4728              1094.0287
 Red. masses --      2.2360                 2.2685                 2.6812
 Frc consts  --      1.4896                 1.5719                 1.8907
 IR Inten    --      3.1419                 5.2127                 8.7363

                     31                     32                     33
                      A                      A                      A
 Frequencies --   1143.1556              1170.6282              1193.7229
 Red. masses --      1.8909                 2.5337                 1.5839
 Frc consts  --      1.4559                 2.0457                 1.3298
 IR Inten    --     35.7386                43.5102                18.9724

                     34                     35                     36
                      A                      A                      A
 Frequencies --   1203.5586              1225.5239              1254.6372
 Red. masses --      1.9346                 1.4002                 1.2865
 Frc consts  --      1.6511                 1.2390                 1.1932
 IR Inten    --     14.7723                 5.1973                 2.7971

                     37                     38                     39
                      A                      A                      A
 Frequencies --   1285.0599              1313.1705              1325.1529
 Red. masses --      1.3546                 1.2282                 1.1094
 Frc consts  --      1.3180                 1.2478                 1.1478
 IR Inten    --      4.2434                 1.0843                 2.0932

                     40                     41                     42
                      A                      A                      A
 Frequencies --   1335.1405              1363.1508              1373.5312
 Red. masses --      1.1798                 1.3326                 1.3121
 Frc consts  --      1.2391                 1.4590                 1.4585
 IR Inten    --      2.3684                18.3392                 2.1897

                     43                     44                     45
                      A                      A                      A
 Frequencies --   1396.1705              1409.0912              1430.1362
 Red. masses --      1.4683                 1.2925                 1.4531
 Frc consts  --      1.6863                 1.5120                 1.7511
 IR Inten    --     22.1893                16.4121                24.1892

                     46                     47                     48
                      A                      A                      A
 Frequencies --   1435.0674              1479.6510              1487.3741
 Red. masses --      1.3557                 1.0776                 1.1253
 Frc consts  --      1.6450                 1.3900                 1.4668
 IR Inten    --      1.2241                 1.0952                26.3885

                     49                     50                     51
                      A                      A                      A
 Frequencies --   1495.1579              1503.0621              1507.7905
 Red. masses --      1.0853                 1.0938                 1.1534
 Frc consts  --      1.4294                 1.4559                 1.5449
 IR Inten    --      1.3867                 8.9331                18.8145

                     52                     53                     54
                      A                      A                      A
 Frequencies --   1519.0824              1539.8508              1640.8079
 Red. masses --      1.0919                 1.0871                 1.0999
 Frc consts  --      1.4846                 1.5187                 1.7447
 IR Inten    --      2.5752                 1.5642                30.2621

                     55                     56                     57
                      A                      A                      A
 Frequencies --   1658.7859              2892.5235              2910.3002
 Red. masses --      1.0889                 1.0800                 1.0713
 Frc consts  --      1.7653                 5.3237                 5.3461
 IR Inten    --     21.9360                34.3264               113.0263

                     58                     59                     60
                      A                      A                      A
 Frequencies --   2931.9119              2956.8007              2999.4157
 Red. masses --      1.0727                 1.0868                 1.0683
 Frc consts  --      5.4330                 5.5983                 5.6624
 IR Inten    --     72.2671                79.2289                15.9383

                     61                     62                     63
                      A                      A                      A
 Frequencies --   3021.9603              3031.9907              3039.2841
 Red. masses --      1.0598                 1.0380                 1.0836
 Frc consts  --      5.7021                 5.6219                 5.8977
 IR Inten    --     31.4444                16.7174                42.8208

                     64                     65                     66
                      A                      A                      A
 Frequencies --   3052.8554              3077.8310              3094.9040
 Red. masses --      1.0972                 1.0989                 1.1008
 Frc consts  --      6.0249                 6.1332                 6.2126
 IR Inten    --      5.6872                67.6055                34.3963

                     67                     68                     69
                      A                      A                      A
 Frequencies --   3123.6837              3481.9779              3492.6862
 Red. masses --      1.0989                 1.0496                 1.0492
 Frc consts  --      6.3174                 7.4975                 7.5409
 IR Inten    --     25.9657                 1.4522                 0.3572

                     70                     71                     72
                      A                      A                      A
 Frequencies --   3513.3006              3559.7027              3578.6894
 Red. masses --      1.0735                 1.0916                 1.0923
 Frc consts  --      7.8071                 8.1498                 8.2422
 IR Inten    --      0.0502                 0.2522                 0.2795

 - Thermochemistry -
 -------------------
 Temperature   298.150 Kelvin.  Pressure   1.00000 Atm.
 Atom     1 has atomic number  6 and mass  12.00000

 Molecular mass:   131.14225 amu.
 Principal axes and moments of inertia in atomic units:
                           1         2         3
     Eigenvalues --   603.726613161.094323597.22522
           X            1.00000   0.00217   0.00127
           Y           -0.00217   1.00000   0.00041
           Z           -0.00127  -0.00042   1.00000
 This molecule is an asymmetric top.
 Rotational symmetry number  1.
 Warning -- assumption of classical behavior for rotation
           may cause significant error
 Rotational temperatures (Kelvin)      0.14347     0.02740     0.02408
 Rotational constants (GHZ):           2.98934     0.57092     0.50170
 Zero-point vibrational energy     632419.6 (Joules/Mol)
                                  151.15192 (Kcal/Mol)
 Warning -- explicit consideration of  16 degrees of freedom as
           vibrations may cause significant error
 Vibrational temperatures:     62.61    93.18    96.11   146.90   192.90
          (Kelvin)            210.18   267.44   358.32   366.25   408.61
                              436.69   444.83   574.65   659.03   703.13
                              815.64  1077.91  1128.83  1197.56  1235.38
                             1255.23  1282.53  1358.62  1400.66  1440.60
                             1486.99  1502.77  1529.93  1560.31  1574.06
                             1644.75  1684.27  1717.50  1731.65  1763.26
                             1805.14  1848.91  1889.36  1906.60  1920.97
                             1961.27  1976.21  2008.78  2027.37  2057.65
                             2064.74  2128.89  2140.00  2151.20  2162.57
                             2169.37  2185.62  2215.50  2360.76  2386.62
                             4161.70  4187.27  4218.37  4254.18  4315.49
                             4347.93  4362.36  4372.85  4392.38  4428.31
                             4452.88  4494.28  5009.79  5025.20  5054.86
                             5121.62  5148.94

 Zero-point correction=                           0.240876 (Hartree/Particle)
 Thermal correction to Energy=                    0.252930
 Thermal correction to Enthalpy=                  0.253874
 Thermal correction to Gibbs Free Energy=         0.202195
 Sum of electronic and zero-point Energies=           -402.906191
 Sum of electronic and thermal Energies=              -402.894137
 Sum of electronic and thermal Enthalpies=            -402.893193
 Sum of electronic and thermal Free Energies=         -402.944872

                     E (Thermal)             CV                S
                      KCal/Mol        Cal/Mol-Kelvin    Cal/Mol-Kelvin
 Total                  158.716             42.717            108.768
 Electronic               0.000              0.000              0.000
 Translational            0.889              2.981             40.526
 Rotational               0.889              2.981             30.308
 Vibrational            156.938             36.755             37.934
 Vibration     1          0.595              1.980              5.092
 Vibration     2          0.597              1.971              4.307
 Vibration     3          0.598              1.970              4.246
 Vibration     4          0.604              1.947              3.414
 Vibration     5          0.613              1.919              2.887
 Vibration     6          0.617              1.907              2.723
 Vibration     7          0.632              1.859              2.269
 Vibration     8          0.662              1.764              1.737
 Vibration     9          0.665              1.755              1.699
 Vibration    10          0.682              1.703              1.509
 Vibration    11          0.695              1.667              1.397
 Vibration    12          0.699              1.656              1.367
 Vibration    13          0.765              1.471              0.965
 Vibration    14          0.816              1.343              0.772
 Vibration    15          0.845              1.275              0.687
 Vibration    16          0.923              1.103              0.510

                           ! Non-Optimized Parameters !
 Normal termination of Gaussian 16 at Tue Jun  1 11:42:47 2021.
