 Gaussian 16, Revision A.03,
 Gaussian 16:  ES64L-G16RevA.03 25-Dec-2016

 -----------------------------
 # opt freq b3lyp/6-31g(2df,p)
 -----------------------------

 -------------------
 Title Card Required
 -------------------
 Symbolic Z-matrix:
 Charge =  0 Multiplicity = 1

 SCF Done:  E(RB3LYP) =  -400.641744101     A.U. after   14 cycles
 SCF Done:  E(RB3LYP) =  -400.671253013     A.U. after   13 cycles
 SCF Done:  E(RB3LYP) =  -400.673575574     A.U. after   12 cycles
 SCF Done:  E(RB3LYP) =  -400.681091302     A.U. after   12 cycles
 SCF Done:  E(RB3LYP) =  -400.684426622     A.U. after   12 cycles
 SCF Done:  E(RB3LYP) =  -400.690609186     A.U. after   14 cycles
 SCF Done:  E(RB3LYP) =  -400.693548709     A.U. after   12 cycles
 SCF Done:  E(RB3LYP) =  -400.695085227     A.U. after   11 cycles
 SCF Done:  E(RB3LYP) =  -400.695879692     A.U. after   11 cycles
 SCF Done:  E(RB3LYP) =  -400.695961058     A.U. after   11 cycles
 SCF Done:  E(RB3LYP) =  -400.695980368     A.U. after   10 cycles
 SCF Done:  E(RB3LYP) =  -400.695990022     A.U. after    9 cycles
 SCF Done:  E(RB3LYP) =  -400.695991115     A.U. after    8 cycles
 SCF Done:  E(RB3LYP) =  -400.695991240     A.U. after    7 cycles
 SCF Done:  E(RB3LYP) =  -400.695991261     A.U. after    6 cycles
 Optimization completed.
    -- Stationary point found.
 Normal termination of Gaussian 16 at Mon May 31 22:47:09 2021.

 ----------------------------------------------------------------------
 #N Geom=AllCheck Guess=TCheck SCRF=Check GenChk RB3LYP/6-31G(2df,p) Fr
 eq
 ----------------------------------------------------------------------

 Structure from the checkpoint file:  "CCpCCtNpNNpCpC.chk"
 -------------------
 Title Card Required
 -------------------
 Charge =  0 Multiplicity = 1

                         Standard orientation:
 ---------------------------------------------------------------------
 Center     Atomic      Atomic             Coordinates (Angstroms)
 Number     Number       Type             X           Y           Z
 ---------------------------------------------------------------------
      1          6           0        1.215285    1.929377    0.163564
      2          6           0        0.512145    0.607013   -0.134316
      3          6           0        1.211362   -0.594286    0.540679
      4          6           0        2.540769   -0.854226   -0.000535
      5          7           0        3.592356   -1.042490   -0.442236
      6          7           0       -0.854569    0.667585    0.384541
      7          7           0       -1.666554   -0.411940   -0.066523
      8          6           0       -2.676783   -0.706022    0.940783
      9          6           0       -2.258915   -0.164415   -1.376202
     10          1           0        2.258329    1.891173   -0.160076
     11          1           0        1.188307    2.145244    1.236561
     12          1           0        0.730236    2.757456   -0.364223
     13          1           0        0.536629    0.432180   -1.222732
     14          1           0        0.581636   -1.477352    0.396648
     15          1           0        1.285399   -0.414001    1.618912
     16          1           0       -1.277944    1.562754    0.125984
     17          1           0       -2.184975   -0.892699    1.896757
     18          1           0       -3.234604   -1.599275    0.643077
     19          1           0       -3.398761    0.119759    1.077366
     20          1           0       -1.475070    0.017124   -2.116129
     21          1           0       -2.944746    0.704394   -1.370944
     22          1           0       -2.826247   -1.043486   -1.695515
 ---------------------------------------------------------------------

 SCF Done:  E(RB3LYP) =  -400.695991261     A.U. after    1 cycles

 The electronic state is 1-A.
 Alpha  occ. eigenvalues --  -14.35830 -14.35085 -14.31885 -10.23304 -10.22076
 Alpha  occ. eigenvalues --  -10.21310 -10.21258 -10.20676 -10.18772  -0.99026
 Alpha  occ. eigenvalues --   -0.89402  -0.85188  -0.77341  -0.72290  -0.71588
 Alpha  occ. eigenvalues --   -0.62847  -0.60086  -0.52837  -0.50853  -0.48181
 Alpha  occ. eigenvalues --   -0.46657  -0.45869  -0.43617  -0.42841  -0.41342
 Alpha  occ. eigenvalues --   -0.40097  -0.37883  -0.37586  -0.37076  -0.36279
 Alpha  occ. eigenvalues --   -0.34828  -0.31552  -0.31425  -0.24871  -0.23722
 Alpha virt. eigenvalues --    0.04126   0.04911   0.06315   0.10018   0.10926
 Alpha virt. eigenvalues --    0.11511   0.12930   0.14357   0.14544   0.14661
 Alpha virt. eigenvalues --    0.15293   0.16305   0.17382   0.18071   0.18909

 Mulliken charges:
               1
     1  C   -0.422865
     2  C    0.073176
     3  C   -0.314071
     4  C    0.258272
     5  N   -0.319615
     6  N   -0.293593
     7  N   -0.044238
     8  C   -0.295036
     9  C   -0.317950
    10  H    0.148129
    11  H    0.129086
    12  H    0.116443
    13  H    0.081039
    14  H    0.159928
    15  H    0.147280
    16  H    0.203735
    17  H    0.127829
    18  H    0.118476
    19  H    0.092833
    20  H    0.128138
    21  H    0.093630
    22  H    0.129371
 Sum of Mulliken charges =  -0.00000

 Dipole moment (field-independent basis, Debye):
    X=             -4.4993    Y=              1.6010    Z=              0.3643  Tot=              4.7895
 Quadrupole moment (field-independent basis, Debye-Ang):
   XX=            -70.3054   YY=            -54.9110   ZZ=            -55.1527
   XY=              5.6156   XZ=              4.9465   YZ=             -2.0620

  Exact polarizability: 105.770   0.015  77.373  -3.180   0.184  73.005
 Approx polarizability: 141.086  -3.621 110.614 -10.003   2.098 109.481

                      1                      2                      3
                      A                      A                      A
 Frequencies --     57.7516                74.0720                99.1418
 Red. masses --      3.5071                 3.3669                 3.1246
 Frc consts  --      0.0069                 0.0109                 0.0181
 IR Inten    --      1.0837                 4.1257                 1.6780

                      4                      5                      6
                      A                      A                      A
 Frequencies --    162.4310               186.6725               238.6556
 Red. masses --      4.4066                 2.3019                 1.1049
 Frc consts  --      0.0685                 0.0473                 0.0371
 IR Inten    --      6.8133                 2.5698                 0.3401

                      7                      8                      9
                      A                      A                      A
 Frequencies --    243.0561               254.9993               311.5933
 Red. masses --      1.1137                 1.1626                 2.3194
 Frc consts  --      0.0388                 0.0445                 0.1327
 IR Inten    --      0.7992                 1.1590                 0.5677

                     10                     11                     12
                      A                      A                      A
 Frequencies --    361.8384               395.9737               404.5172
 Red. masses --      2.9616                 2.4075                 3.2441
 Frc consts  --      0.2285                 0.2224                 0.3128
 IR Inten    --      7.7367                 0.5309                 0.8248

                     13                     14                     15
                      A                      A                      A
 Frequencies --    445.7621               474.0075               496.6280
 Red. masses --      2.4974                 2.7667                 2.8292
 Frc consts  --      0.2924                 0.3662                 0.4111
 IR Inten    --      4.2030                 4.8314                 0.4434

                     16                     17                     18
                      A                      A                      A
 Frequencies --    572.8675               770.3896               850.6802
 Red. masses --      4.9955                 2.2961                 2.4646
 Frc consts  --      0.9659                 0.8029                 1.0508
 IR Inten    --      2.0964                31.6369                 2.8494

                     19                     20                     21
                      A                      A                      A
 Frequencies --    890.3324               907.6735               964.6099
 Red. masses --      1.6159                 2.1442                 2.7466
 Frc consts  --      0.7547                 1.0408                 1.5057
 IR Inten    --     28.4799                36.1070                 0.5401

                     22                     23                     24
                      A                      A                      A
 Frequencies --    980.8170              1033.6861              1050.3230
 Red. masses --      1.6886                 1.6830                 2.6085
 Frc consts  --      0.9571                 1.0595                 1.6954
 IR Inten    --      6.2782                11.4599                 4.1922

                     25                     26                     27
                      A                      A                      A
 Frequencies --   1109.8888              1116.6011              1118.5933
 Red. masses --      1.8321                 1.6760                 1.5952
 Frc consts  --      1.3297                 1.2312                 1.1760
 IR Inten    --      5.1215                 8.0830                 0.3906

                     28                     29                     30
                      A                      A                      A
 Frequencies --   1161.7059              1210.5112              1235.9943
 Red. masses --      1.7372                 1.7101                 1.3853
 Frc consts  --      1.3814                 1.4764                 1.2469
 IR Inten    --     16.6322                 3.4322                14.3921

                     31                     32                     33
                      A                      A                      A
 Frequencies --   1252.2725              1275.5589              1292.6097
 Red. masses --      2.7085                 1.9445                 1.5878
 Frc consts  --      2.5025                 1.8640                 1.5631
 IR Inten    --      2.4634                 2.1473                 3.1608

                     34                     35                     36
                      A                      A                      A
 Frequencies --   1361.7583              1388.6977              1411.9261
 Red. masses --      1.3312                 1.3656                 1.2824
 Frc consts  --      1.4544                 1.5517                 1.5063
 IR Inten    --      6.6447                21.0838                10.1279

                     37                     38                     39
                      A                      A                      A
 Frequencies --   1436.3310              1456.7493              1469.5431
 Red. masses --      1.1650                 1.1765                 1.0902
 Frc consts  --      1.4161                 1.4709                 1.3872
 IR Inten    --      1.0612                 2.1052                 2.1740

                     40                     41                     42
                      A                      A                      A
 Frequencies --   1476.7716              1482.8862              1491.4046
 Red. masses --      1.0715                 1.0703                 1.0499
 Frc consts  --      1.3768                 1.3866                 1.3760
 IR Inten    --      2.9566                 7.9211                 5.9778

                     43                     44                     45
                      A                      A                      A
 Frequencies --   1494.2132              1501.5470              1507.6606
 Red. masses --      1.0492                 1.0564                 1.0521
 Frc consts  --      1.3802                 1.4033                 1.4090
 IR Inten    --      8.0093                 4.5037                 2.0922

                     46                     47                     48
                      A                      A                      A
 Frequencies --   1522.0024              2359.0713              2927.3026
 Red. masses --      1.1717                12.6014                 1.0594
 Frc consts  --      1.5991                41.3192                 5.3486
 IR Inten    --     15.7674                15.3494                52.3690

                     49                     50                     51
                      A                      A                      A
 Frequencies --   2945.0496              2960.1208              3037.0319
 Red. masses --      1.0591                 1.0814                 1.0363
 Frc consts  --      5.4123                 5.5831                 5.6318
 IR Inten    --    105.8111                32.7913                15.8578

                     52                     53                     54
                      A                      A                      A
 Frequencies --   3051.5729              3072.1531              3076.6624
 Red. masses --      1.0593                 1.0739                 1.0723
 Frc consts  --      5.8120                 5.9716                 5.9805
 IR Inten    --      4.4565                15.0140                38.5341

                     55                     56                     57
                      A                      A                      A
 Frequencies --   3100.4365              3103.7299              3117.2817
 Red. masses --      1.1007                 1.1011                 1.1030
 Frc consts  --      6.2338                 6.2497                 6.3150
 IR Inten    --      3.3521                23.0371                23.2227

                     58                     59                     60
                      A                      A                      A
 Frequencies --   3127.0592              3134.9427              3381.1785
 Red. masses --      1.1009                 1.1012                 1.0734
 Frc consts  --      6.3427                 6.3766                 7.2298
 IR Inten    --     12.4862                19.1942                11.2394

 - Thermochemistry -
 -------------------
 Temperature   298.150 Kelvin.  Pressure   1.00000 Atm.
 Atom     1 has atomic number  6 and mass  12.00000

 Molecular mass:   127.11095 amu.
 Principal axes and moments of inertia in atomic units:
                           1         2         3
     Eigenvalues --   644.206152186.318262382.72992
           X            0.99952   0.02999   0.00804
           Y           -0.02969   0.99894  -0.03520
           Z           -0.00909   0.03495   0.99935
 This molecule is an asymmetric top.
 Rotational symmetry number  1.
 Warning -- assumption of classical behavior for rotation
           may cause significant error
 Rotational temperatures (Kelvin)      0.13445     0.03962     0.03635
 Rotational constants (GHZ):           2.80150     0.82547     0.75743
 Zero-point vibrational energy     504808.0 (Joules/Mol)
                                  120.65200 (Kcal/Mol)
 Warning -- explicit consideration of  16 degrees of freedom as
           vibrations may cause significant error
 Vibrational temperatures:     83.09   106.57   142.64   233.70   268.58
          (Kelvin)            343.37   349.70   366.89   448.31   520.60
                              569.72   582.01   641.35   681.99   714.54
                              824.23  1108.42  1223.94  1280.99  1305.94
                             1387.86  1411.18  1487.24  1511.18  1596.88
                             1606.54  1609.41  1671.44  1741.66  1778.32
                             1801.74  1835.24  1859.78  1959.27  1998.03
                             2031.45  2066.56  2095.94  2114.34  2124.74
                             2133.54  2145.80  2149.84  2160.39  2169.19
                             2189.82  3394.18  4211.74  4237.27  4258.95
                             4369.61  4390.53  4420.14  4426.63  4460.84
                             4465.57  4485.07  4499.14  4510.48  4864.76

 Zero-point correction=                           0.192271 (Hartree/Particle)
 Thermal correction to Energy=                    0.203053
 Thermal correction to Enthalpy=                  0.203997
 Thermal correction to Gibbs Free Energy=         0.156073
 Sum of electronic and zero-point Energies=           -400.503720
 Sum of electronic and thermal Energies=              -400.492939
 Sum of electronic and thermal Enthalpies=            -400.491994
 Sum of electronic and thermal Free Energies=         -400.539918

                     E (Thermal)             CV                S
                      KCal/Mol        Cal/Mol-Kelvin    Cal/Mol-Kelvin
 Total                  127.417             38.865            100.864
 Electronic               0.000              0.000              0.000
 Translational            0.889              2.981             40.433
 Rotational               0.889              2.981             29.597
 Vibrational            125.640             32.903             30.834
 Vibration     1          0.596              1.974              4.533
 Vibration     2          0.599              1.966              4.042
 Vibration     3          0.604              1.950              3.471
 Vibration     4          0.623              1.889              2.521
 Vibration     5          0.632              1.858              2.261
 Vibration     6          0.657              1.781              1.813
 Vibration     7          0.659              1.774              1.780
 Vibration     8          0.665              1.754              1.696
 Vibration     9          0.700              1.652              1.354
 Vibration    10          0.736              1.551              1.114
 Vibration    11          0.763              1.479              0.978
 Vibration    12          0.770              1.460              0.946
 Vibration    13          0.805              1.370              0.809
 Vibration    14          0.831              1.308              0.726
 Vibration    15          0.852              1.257              0.667
 Vibration    16          0.929              1.090              0.499

 Optimization completed.
    -- Stationary point found.
 Normal termination of Gaussian 16 at Mon May 31 23:21:51 2021.
