 Gaussian 16, Revision A.03,
 Gaussian 16:  ES64L-G16RevA.03 25-Dec-2016

 -----------------------------
 # opt freq b3lyp/6-31g(2df,p)
 -----------------------------

 -------------------
 Title Card Required
 -------------------
 Symbolic Z-matrix:
 Charge =  0 Multiplicity = 1

 SCF Done:  E(RB3LYP) =  -416.747938346     A.U. after   13 cycles
 SCF Done:  E(RB3LYP) =  -416.753464832     A.U. after   12 cycles
 SCF Done:  E(RB3LYP) =  -416.754259308     A.U. after   10 cycles
 SCF Done:  E(RB3LYP) =  -416.754457144     A.U. after   11 cycles
 SCF Done:  E(RB3LYP) =  -416.754649641     A.U. after   11 cycles
 SCF Done:  E(RB3LYP) =  -416.754755115     A.U. after   10 cycles
 SCF Done:  E(RB3LYP) =  -416.754856493     A.U. after   11 cycles
 SCF Done:  E(RB3LYP) =  -416.754905371     A.U. after   10 cycles
 SCF Done:  E(RB3LYP) =  -416.755102099     A.U. after   11 cycles
 SCF Done:  E(RB3LYP) =  -416.755135528     A.U. after   11 cycles
 SCF Done:  E(RB3LYP) =  -416.754976745     A.U. after   13 cycles
 SCF Done:  E(RB3LYP) =  -416.755232560     A.U. after   14 cycles
 SCF Done:  E(RB3LYP) =  -416.755328975     A.U. after   10 cycles
 SCF Done:  E(RB3LYP) =  -416.755323460     A.U. after   11 cycles
 SCF Done:  E(RB3LYP) =  -416.755343490     A.U. after   10 cycles
 SCF Done:  E(RB3LYP) =  -416.755352553     A.U. after    9 cycles
 SCF Done:  E(RB3LYP) =  -416.755355835     A.U. after    9 cycles
 SCF Done:  E(RB3LYP) =  -416.755355921     A.U. after    7 cycles
 SCF Done:  E(RB3LYP) =  -416.755355958     A.U. after    7 cycles
 Optimization completed.
    -- Stationary point found.
 Normal termination of Gaussian 16 at Tue Jun  1 16:03:52 2021.

 ----------------------------------------------------------------------
 #N Geom=AllCheck Guess=TCheck SCRF=Check GenChk RB3LYP/6-31G(2df,p) Fr
 eq
 ----------------------------------------------------------------------

 Structure from the checkpoint file:  "CCpCNCNpNCtN.chk"
 -------------------
 Title Card Required
 -------------------
 Charge =  0 Multiplicity = 1

                         Standard orientation:
 ---------------------------------------------------------------------
 Center     Atomic      Atomic             Coordinates (Angstroms)
 Number     Number       Type             X           Y           Z
 ---------------------------------------------------------------------
      1          6           0       -0.750025    2.249027   -0.011824
      2          6           0       -0.890692    0.755705   -0.291760
      3          6           0        0.173231   -0.090812    0.421896
      4          7           0        1.501707    0.200841   -0.091593
      5          6           0        2.510115   -0.789750    0.255348
      6          7           0        3.786097   -0.325578   -0.268593
      7          7           0       -2.233036    0.330380    0.169605
      8          6           0       -2.643658   -0.922602   -0.049171
      9          7           0       -2.980592   -2.024701   -0.200798
     10          1           0        0.208140    2.613690   -0.388740
     11          1           0       -0.810348    2.453325    1.062487
     12          1           0       -1.535393    2.822229   -0.517248
     13          1           0       -0.786456    0.580806   -1.370745
     14          1           0       -0.040819   -1.147969    0.225499
     15          1           0        0.068574    0.052997    1.512686
     16          1           0        1.834111    1.100333    0.241396
     17          1           0        2.166098   -1.757727   -0.148729
     18          1           0        2.633437   -0.926573    1.345754
     19          1           0        3.770487   -0.364447   -1.283391
     20          1           0        4.536928   -0.930404    0.047024
     21          1           0       -2.957816    1.027729    0.066736
 ---------------------------------------------------------------------

 SCF Done:  E(RB3LYP) =  -416.755355958     A.U. after    1 cycles

 The electronic state is 1-A.
 Alpha  occ. eigenvalues --  -14.37953 -14.31878 -14.31364 -14.30788 -10.24111
 Alpha  occ. eigenvalues --  -10.23382 -10.23227 -10.21443 -10.19825  -0.96745
 Alpha  occ. eigenvalues --   -0.92703  -0.87475  -0.85824  -0.77861  -0.69818
 Alpha  occ. eigenvalues --   -0.63622  -0.60916  -0.58002  -0.52155  -0.51238
 Alpha  occ. eigenvalues --   -0.48468  -0.45991  -0.43230  -0.41705  -0.40923
 Alpha  occ. eigenvalues --   -0.40166  -0.39073  -0.38876  -0.35476  -0.34882
 Alpha  occ. eigenvalues --   -0.34256  -0.31607  -0.25103  -0.24767  -0.23163
 Alpha virt. eigenvalues --    0.03670   0.06792   0.07619   0.08430   0.09493
 Alpha virt. eigenvalues --    0.11520   0.12450   0.13058   0.13436   0.14743
 Alpha virt. eigenvalues --    0.16199   0.17062   0.18453   0.19771   0.20140

 Mulliken charges:
               1
     1  C   -0.427305
     2  C    0.031991
     3  C   -0.134600
     4  N   -0.289925
     5  C   -0.085727
     6  N   -0.514191
     7  N   -0.396814
     8  C    0.331051
     9  N   -0.351626
    10  H    0.140671
    11  H    0.130560
    12  H    0.119655
    13  H    0.102348
    14  H    0.129592
    15  H    0.091094
    16  H    0.220250
    17  H    0.093515
    18  H    0.084276
    19  H    0.230752
    20  H    0.229509
    21  H    0.264924
 Sum of Mulliken charges =  -0.00000

 Dipole moment (field-independent basis, Debye):
    X=              2.1340    Y=              3.4629    Z=              0.1735  Tot=              4.0713
 Quadrupole moment (field-independent basis, Debye-Ang):
   XX=            -57.1747   YY=            -59.3628   ZZ=            -54.9278
   XY=            -18.0320   XZ=             -0.7318   YZ=             -0.5916

  Exact polarizability:  94.153   3.744  87.206  -0.069   0.018  62.730
 Approx polarizability: 113.285  10.208 134.264   0.098   2.851  96.118

                      1                      2                      3
                      A                      A                      A
 Frequencies --     53.8650                58.2233                76.2856
 Red. masses --      3.0724                 3.8609                 2.4104
 Frc consts  --      0.0053                 0.0077                 0.0083
 IR Inten    --      4.1294                 8.3066                 2.1114

                      4                      5                      6
                      A                      A                      A
 Frequencies --    107.6691               154.4738               188.1596
 Red. masses --      3.1680                 4.5779                 2.2616
 Frc consts  --      0.0216                 0.0644                 0.0472
 IR Inten    --      1.3974                 3.7080                 7.5245

                      7                      8                      9
                      A                      A                      A
 Frequencies --    259.4648               274.1798               299.2870
 Red. masses --      1.1970                 1.2801                 2.3753
 Frc consts  --      0.0475                 0.0567                 0.1254
 IR Inten    --      2.8287                28.7023                 1.1672

                     10                     11                     12
                      A                      A                      A
 Frequencies --    337.1517               381.0490               411.4275
 Red. masses --      2.9950                 1.5564                 3.2864
 Frc consts  --      0.2006                 0.1331                 0.3278
 IR Inten    --     20.0523                54.9879                 1.6836

                     13                     14                     15
                      A                      A                      A
 Frequencies --    447.3320               526.2660               559.7299
 Red. masses --      2.2140                 3.6994                 9.4445
 Frc consts  --      0.2610                 0.6037                 1.7434
 IR Inten    --     10.2870                13.2478                15.3839

                     16                     17                     18
                      A                      A                      A
 Frequencies --    657.6850               806.6413               850.9242
 Red. masses --      3.9713                 1.2381                 2.3168
 Frc consts  --      1.0121                 0.4746                 0.9884
 IR Inten    --     17.5084                53.6679                 1.2645

                     19                     20                     21
                      A                      A                      A
 Frequencies --    859.8371               922.8509               941.4646
 Red. masses --      1.2590                 1.4015                 1.8874
 Frc consts  --      0.5484                 0.7033                 0.9856
 IR Inten    --    153.0389                13.6734                 2.0728

                     22                     23                     24
                      A                      A                      A
 Frequencies --    973.2462              1059.0291              1092.3241
 Red. masses --      1.5492                 2.3081                 2.6918
 Frc consts  --      0.8646                 1.5251                 1.8923
 IR Inten    --      3.5066                 6.1611                 0.4726

                     25                     26                     27
                      A                      A                      A
 Frequencies --   1096.5789              1158.6819              1163.1089
 Red. masses --      2.0111                 3.3300                 3.1767
 Frc consts  --      1.4248                 2.6341                 2.5320
 IR Inten    --     11.0037                90.8610                22.8388

                     28                     29                     30
                      A                      A                      A
 Frequencies --   1171.0157              1197.9789              1220.6592
 Red. masses --      2.3604                 1.9264                 1.3784
 Frc consts  --      1.9070                 1.6289                 1.2101
 IR Inten    --     17.4401                18.6088                21.7294

                     31                     32                     33
                      A                      A                      A
 Frequencies --   1283.0811              1314.2816              1347.0299
 Red. masses --      1.3510                 1.1906                 1.2378
 Frc consts  --      1.3105                 1.2117                 1.3233
 IR Inten    --     20.5306                24.7500                 3.4233

                     34                     35                     36
                      A                      A                      A
 Frequencies --   1372.5725              1385.3785              1412.7886
 Red. masses --      1.2360                 1.3108                 1.2901
 Frc consts  --      1.3720                 1.4822                 1.5172
 IR Inten    --      0.7741                 6.2591                16.5554

                     37                     38                     39
                      A                      A                      A
 Frequencies --   1445.1687              1453.9974              1486.2626
 Red. masses --      1.3290                 1.3916                 1.2454
 Frc consts  --      1.6354                 1.7334                 1.6209
 IR Inten    --     24.5684                19.2788                64.0316

                     40                     41                     42
                      A                      A                      A
 Frequencies --   1495.3755              1506.1456              1511.7924
 Red. masses --      1.0805                 1.0904                 1.0804
 Frc consts  --      1.4235                 1.4574                 1.4548
 IR Inten    --      6.9253                 9.3078                 5.3007

                     43                     44                     45
                      A                      A                      A
 Frequencies --   1538.4761              1644.9053              2341.0118
 Red. masses --      1.0861                 1.1006                12.3494
 Frc consts  --      1.5146                 1.7546                39.8753
 IR Inten    --      0.7439                29.7024               126.5489

                     46                     47                     48
                      A                      A                      A
 Frequencies --   2926.0519              2941.1594              2953.0859
 Red. masses --      1.0609                 1.0717                 1.0981
 Frc consts  --      5.3517                 5.4621                 5.6419
 IR Inten    --     64.7043                74.0498                67.2884

                     49                     50                     51
                      A                      A                      A
 Frequencies --   3018.9520              3033.8013              3059.6472
 Red. masses --      1.0835                 1.0376                 1.0890
 Frc consts  --      5.8183                 5.6268                 6.0064
 IR Inten    --     30.9433                18.3322                15.3364

                     52                     53                     54
                      A                      A                      A
 Frequencies --   3098.4630              3129.3878              3499.4280
 Red. masses --      1.1009                 1.0996                 1.0494
 Frc consts  --      6.2273                 6.3447                 7.5715
 IR Inten    --     26.1665                15.7721                 0.1894

                     55                     56                     57
                      A                      A                      A
 Frequencies --   3520.6202              3581.9910              3586.0740
 Red. masses --      1.0731                 1.0745                 1.0924
 Frc consts  --      7.8369                 8.1230                 8.2771
 IR Inten    --      1.0900                25.7459                 0.7892

 - Thermochemistry -
 -------------------
 Temperature   298.150 Kelvin.  Pressure   1.00000 Atm.
 Atom     1 has atomic number  6 and mass  12.00000

 Molecular mass:   128.10620 amu.
 Principal axes and moments of inertia in atomic units:
                           1         2         3
     Eigenvalues --   681.207322431.372763002.32117
           X            0.99928  -0.03783   0.00007
           Y            0.03783   0.99926  -0.00643
           Z            0.00017   0.00643   0.99998
 This molecule is an asymmetric top.
 Rotational symmetry number  1.
 Warning -- assumption of classical behavior for rotation
           may cause significant error
 Rotational temperatures (Kelvin)      0.12715     0.03562     0.02885
 Rotational constants (GHZ):           2.64933     0.74227     0.60112
 Zero-point vibrational energy     479663.8 (Joules/Mol)
                                  114.64239 (Kcal/Mol)
 Warning -- explicit consideration of  15 degrees of freedom as
           vibrations may cause significant error
 Vibrational temperatures:     77.50    83.77   109.76   154.91   222.25
          (Kelvin)            270.72   373.31   394.48   430.61   485.09
                              548.24   591.95   643.61   757.18   805.33
                              946.26  1160.58  1224.29  1237.11  1327.78
                             1354.56  1400.28  1523.71  1571.61  1577.73
                             1667.08  1673.45  1684.83  1723.62  1756.26
                             1846.07  1890.96  1938.08  1974.83  1993.25
                             2032.69  2079.28  2091.98  2138.40  2151.51
                             2167.01  2175.13  2213.52  2366.65  3368.19
                             4209.94  4231.67  4248.83  4343.60  4364.96
                             4402.15  4458.00  4502.49  5034.90  5065.39
                             5153.69  5159.56

 Zero-point correction=                           0.182694 (Hartree/Particle)
 Thermal correction to Energy=                    0.193629
 Thermal correction to Enthalpy=                  0.194573
 Thermal correction to Gibbs Free Energy=         0.145422
 Sum of electronic and zero-point Energies=           -416.572662
 Sum of electronic and thermal Energies=              -416.561727
 Sum of electronic and thermal Enthalpies=            -416.560783
 Sum of electronic and thermal Free Energies=         -416.609934

                     E (Thermal)             CV                S
                      KCal/Mol        Cal/Mol-Kelvin    Cal/Mol-Kelvin
 Total                  121.504             38.273            103.446
 Electronic               0.000              0.000              0.000
 Translational            0.889              2.981             40.456
 Rotational               0.889              2.981             29.987
 Vibrational            119.726             32.311             33.003
 Vibration     1          0.596              1.976              4.670
 Vibration     2          0.596              1.974              4.517
 Vibration     3          0.599              1.965              3.984
 Vibration     4          0.606              1.943              3.311
 Vibration     5          0.620              1.898              2.616
 Vibration     6          0.633              1.856              2.246
 Vibration     7          0.668              1.747              1.665
 Vibration     8          0.676              1.721              1.570
 Vibration     9          0.692              1.675              1.421
 Vibration    10          0.718              1.601              1.226
 Vibration    11          0.751              1.511              1.035
 Vibration    12          0.775              1.445              0.922
 Vibration    13          0.806              1.367              0.804
 Vibration    14          0.881              1.192              0.596
 Vibration    15          0.915              1.118              0.524

 Optimization completed.
    -- Stationary point found.
 Normal termination of Gaussian 16 at Tue Jun  1 16:37:07 2021.
