 Gaussian 16, Revision A.03,
 Gaussian 16:  ES64L-G16RevA.03 25-Dec-2016

 -----------------------------
 # opt freq b3lyp/6-31g(2df,p)
 -----------------------------

 -------------------
 Title Card Required
 -------------------
 Symbolic Z-matrix:
 Charge =  0 Multiplicity = 1

 SCF Done:  E(RB3LYP) =  -360.156805575     A.U. after   14 cycles
 SCF Done:  E(RB3LYP) =  -360.161640877     A.U. after   13 cycles
 SCF Done:  E(RB3LYP) =  -360.162458258     A.U. after   13 cycles
 SCF Done:  E(RB3LYP) =  -360.164257453     A.U. after   15 cycles
 SCF Done:  E(RB3LYP) =  -360.165321011     A.U. after   15 cycles
 SCF Done:  E(RB3LYP) =  -360.166509832     A.U. after   12 cycles
 SCF Done:  E(RB3LYP) =  -360.167020226     A.U. after   12 cycles
 SCF Done:  E(RB3LYP) =  -360.167317553     A.U. after   12 cycles
 SCF Done:  E(RB3LYP) =  -360.167460390     A.U. after   12 cycles
 SCF Done:  E(RB3LYP) =  -360.167500187     A.U. after   12 cycles
 SCF Done:  E(RB3LYP) =  -360.167510123     A.U. after    9 cycles
 SCF Done:  E(RB3LYP) =  -360.167511286     A.U. after    8 cycles
 SCF Done:  E(RB3LYP) =  -360.167511584     A.U. after    8 cycles
 SCF Done:  E(RB3LYP) =  -360.167511629     A.U. after    7 cycles
 Optimization completed.
    -- Stationary point found.
 Normal termination of Gaussian 16 at Mon May 31 17:25:52 2021.

 ----------------------------------------------------------------------
 #N Geom=AllCheck Guess=TCheck SCRF=Check GenChk RB3LYP/6-31G(2df,p) Fr
 eq
 ----------------------------------------------------------------------

 Structure from the checkpoint file:  "CCpCdNpNdCCdN.chk"
 -------------------
 Title Card Required
 -------------------
 Charge =  0 Multiplicity = 1

                         Standard orientation:
 ---------------------------------------------------------------------
 Center     Atomic      Atomic             Coordinates (Angstroms)
 Number     Number       Type             X           Y           Z
 ---------------------------------------------------------------------
      1          6           0       -1.600214    1.749293    0.120359
      2          6           0       -1.048057    0.317015    0.243835
      3          6           0       -1.999167   -0.658425   -0.432207
      4          7           0       -2.766592   -1.497197    0.125936
      5          7           0        0.233557    0.248635   -0.436022
      6          6           0        1.270446   -0.028032    0.241314
      7          6           0        2.596058   -0.104204   -0.401509
      8          7           0        3.694987   -0.364264    0.185804
      9          1           0       -2.578114    1.820116    0.604235
     10          1           0       -1.704859    2.028001   -0.931700
     11          1           0       -0.917868    2.459038    0.596389
     12          1           0       -0.966739    0.046691    1.311037
     13          1           0       -2.012762   -0.588090   -1.524423
     14          1           0       -2.653573   -1.473608    1.145150
     15          1           0        1.247290   -0.222155    1.327350
     16          1           0        2.600054    0.085844   -1.477066
     17          1           0        3.538504   -0.519946    1.188250
 ---------------------------------------------------------------------

 SCF Done:  E(RB3LYP) =  -360.167511629     A.U. after    1 cycles

 The electronic state is 1-A.
 Alpha  occ. eigenvalues --  -14.35272 -14.33621 -14.32541 -10.24770 -10.24136
 Alpha  occ. eigenvalues --  -10.23899 -10.23626 -10.19724  -0.95541  -0.91614
 Alpha  occ. eigenvalues --   -0.90353  -0.78462  -0.68757  -0.64120  -0.59112
 Alpha  occ. eigenvalues --   -0.58943  -0.51214  -0.50845  -0.47625  -0.43301
 Alpha  occ. eigenvalues --   -0.42586  -0.41823  -0.40285  -0.37946  -0.37364
 Alpha  occ. eigenvalues --   -0.32134  -0.30891  -0.29067  -0.27293  -0.26164
 Alpha virt. eigenvalues --   -0.07037  -0.00652   0.05268   0.07911   0.08960
 Alpha virt. eigenvalues --    0.10910   0.11452   0.14640   0.15727   0.16094
 Alpha virt. eigenvalues --    0.16387   0.18047   0.19262   0.22082   0.25644

 Mulliken charges:
               1
     1  C   -0.385139
     2  C   -0.026322
     3  C    0.084368
     4  N   -0.393141
     5  N   -0.151243
     6  C   -0.016731
     7  C    0.031423
     8  N   -0.381596
     9  H    0.129976
    10  H    0.139455
    11  H    0.127462
    12  H    0.066564
    13  H    0.123027
    14  H    0.217802
    15  H    0.084818
    16  H    0.126289
    17  H    0.222990
 Sum of Mulliken charges =  -0.00000

 Dipole moment (field-independent basis, Debye):
    X=             -0.5740    Y=              1.6531    Z=              2.2005  Tot=              2.8115
 Quadrupole moment (field-independent basis, Debye-Ang):
   XX=            -64.2163   YY=            -50.9426   ZZ=            -43.6648
   XY=             -4.9474   XZ=              0.8596   YZ=             -1.7058

  Exact polarizability: 111.426  -0.906  59.260   3.628  -5.628  67.463
 Approx polarizability: 157.929  -1.243  87.235  12.653 -13.169 108.704

                      1                      2                      3
                      A                      A                      A
 Frequencies --     46.9036                88.6314               145.4146
 Red. masses --      5.0266                 2.3902                 3.4960
 Frc consts  --      0.0065                 0.0111                 0.0436
 IR Inten    --      0.7882                 0.5837                 5.5914

                      4                      5                      6
                      A                      A                      A
 Frequencies --    170.0582               183.5919               224.6377
 Red. masses --      3.5713                 2.0161                 1.0493
 Frc consts  --      0.0609                 0.0400                 0.0312
 IR Inten    --     11.3959                 2.3013                 0.6628

                      7                      8                      9
                      A                      A                      A
 Frequencies --    282.8229               342.1777               421.8266
 Red. masses --      2.2039                 3.0134                 4.5831
 Frc consts  --      0.1039                 0.2079                 0.4805
 IR Inten    --      1.5779                 1.3278                 1.0529

                     10                     11                     12
                      A                      A                      A
 Frequencies --    448.5369               515.2313               616.4899
 Red. masses --      3.3595                 3.1313                 3.6593
 Frc consts  --      0.3982                 0.4898                 0.8194
 IR Inten    --      9.2214                34.4068                 1.8297

                     13                     14                     15
                      A                      A                      A
 Frequencies --    807.7333               824.7436               880.1504
 Red. masses --      1.6375                 2.0315                 1.8456
 Frc consts  --      0.6295                 0.8141                 0.8424
 IR Inten    --     18.2905                 5.6452                 0.9827

                     16                     17                     18
                      A                      A                      A
 Frequencies --    938.1329              1000.8236              1069.5974
 Red. masses --      2.2786                 1.8518                 2.8580
 Frc consts  --      1.1815                 1.0928                 1.9264
 IR Inten    --      7.5920                 4.2871                 3.8274

                     19                     20                     21
                      A                      A                      A
 Frequencies --   1075.7596              1117.4219              1136.8078
 Red. masses --      2.1815                 1.6895                 1.9309
 Frc consts  --      1.4874                 1.2429                 1.4703
 IR Inten    --     10.3635                21.4045                 8.0316

                     22                     23                     24
                      A                      A                      A
 Frequencies --   1146.5889              1150.8986              1237.6723
 Red. masses --      1.0971                 1.1023                 1.3385
 Frc consts  --      0.8498                 0.8602                 1.2081
 IR Inten    --     36.4387                50.3497                98.0327

                     25                     26                     27
                      A                      A                      A
 Frequencies --   1262.8232              1323.2197              1328.6114
 Red. masses --      1.4980                 1.2784                 1.2544
 Frc consts  --      1.4075                 1.3188                 1.3047
 IR Inten    --     33.6543                10.3294                78.3042

                     28                     29                     30
                      A                      A                      A
 Frequencies --   1383.3597              1394.1245              1404.8922
 Red. masses --      1.3385                 1.2107                 1.3084
 Frc consts  --      1.5092                 1.3864                 1.5215
 IR Inten    --      2.9478                 7.8621                47.2012

                     31                     32                     33
                      A                      A                      A
 Frequencies --   1411.7249              1485.8169              1496.1114
 Red. masses --      1.2754                 1.0481                 1.0518
 Frc consts  --      1.4976                 1.3633                 1.3872
 IR Inten    --     13.4619                 5.1086                 3.1620

                     34                     35                     36
                      A                      A                      A
 Frequencies --   1697.9141              1716.0144              1735.9204
 Red. masses --      9.0949                 8.4457                 8.5380
 Frc consts  --     15.4482                14.6530                15.1589
 IR Inten    --     52.2231                13.8620                61.7036

                     37                     38                     39
                      A                      A                      A
 Frequencies --   2948.4695              2972.7980              3044.3154
 Red. masses --      1.0829                 1.0852                 1.0334
 Frc consts  --      5.5465                 5.6507                 5.6431
 IR Inten    --     33.8629                46.7128                16.6919

                     40                     41                     42
                      A                      A                      A
 Frequencies --   3090.3264              3118.9473              3122.2191
 Red. masses --      1.0880                 1.0897                 1.1028
 Frc consts  --      6.1221                 6.2458                 6.3338
 IR Inten    --     20.4937                15.0868                16.1383

                     43                     44                     45
                      A                      A                      A
 Frequencies --   3128.6799              3395.5484              3400.8538
 Red. masses --      1.1026                 1.0735                 1.0737
 Frc consts  --      6.3593                 7.2922                 7.3163
 IR Inten    --     15.1321                 3.9985                 4.1482

 - Thermochemistry -
 -------------------
 Temperature   298.150 Kelvin.  Pressure   1.00000 Atm.
 Atom     1 has atomic number  6 and mass  12.00000

 Molecular mass:   111.07965 amu.
 Principal axes and moments of inertia in atomic units:
                           1         2         3
     Eigenvalues --   410.920261986.650772244.25905
           X            0.99986  -0.01657   0.00058
           Y            0.01658   0.99976  -0.01404
           Z           -0.00034   0.01405   0.99990
 This molecule is an asymmetric top.
 Rotational symmetry number  1.
 Rotational temperatures (Kelvin)      0.21078     0.04360     0.03859
 Rotational constants (GHZ):           4.39195     0.90843     0.80416
 Zero-point vibrational energy     369259.4 (Joules/Mol)
                                   88.25510 (Kcal/Mol)
 Warning -- explicit consideration of  12 degrees of freedom as
           vibrations may cause significant error
 Vibrational temperatures:     67.48   127.52   209.22   244.68   264.15
          (Kelvin)            323.20   406.92   492.32   606.91   645.34
                              741.30   886.99  1162.15  1186.62  1266.34
                             1349.76  1439.96  1538.91  1547.78  1607.72
                             1635.61  1649.69  1655.89  1780.73  1816.92
                             1903.82  1911.58  1990.35  2005.83  2021.33
                             2031.16  2137.76  2152.57  2442.92  2468.96
                             2497.60  4242.19  4277.19  4380.09  4446.29
                             4487.47  4492.18  4501.47  4885.44  4893.07

 Zero-point correction=                           0.140643 (Hartree/Particle)
 Thermal correction to Energy=                    0.149699
 Thermal correction to Enthalpy=                  0.150643
 Thermal correction to Gibbs Free Energy=         0.106066
 Sum of electronic and zero-point Energies=           -360.026868
 Sum of electronic and thermal Energies=              -360.017812
 Sum of electronic and thermal Enthalpies=            -360.016868
 Sum of electronic and thermal Free Energies=         -360.061446

                     E (Thermal)             CV                S
                      KCal/Mol        Cal/Mol-Kelvin    Cal/Mol-Kelvin
 Total                   93.938             31.161             93.821
 Electronic               0.000              0.000              0.000
 Translational            0.889              2.981             40.031
 Rotational               0.889              2.981             28.995
 Vibrational             92.160             25.199             24.795
 Vibration     1          0.595              1.979              4.944
 Vibration     2          0.601              1.957              3.690
 Vibration     3          0.617              1.908              2.731
 Vibration     4          0.625              1.879              2.435
 Vibration     5          0.631              1.862              2.292
 Vibration     6          0.649              1.804              1.921
 Vibration     7          0.682              1.705              1.517
 Vibration     8          0.721              1.591              1.202
 Vibration     9          0.784              1.423              0.886
 Vibration    10          0.808              1.364              0.800
 Vibration    11          0.870              1.216              0.621
 Vibration    12          0.976              0.997              0.422

 Optimization completed.
    -- Stationary point found.
 Normal termination of Gaussian 16 at Mon May 31 17:44:24 2021.
