 Gaussian 16, Revision A.03,
 Gaussian 16:  ES64L-G16RevA.03 25-Dec-2016

 -----------------------------
 # opt freq b3lyp/6-31g(2df,p)
 -----------------------------

 -------------------
 Title Card Required
 -------------------
 Symbolic Z-matrix:
 Charge =  0 Multiplicity = 1

 SCF Done:  E(RB3LYP) =  -511.263411152     A.U. after   15 cycles
 SCF Done:  E(RB3LYP) =  -511.296324522     A.U. after   12 cycles
 SCF Done:  E(RB3LYP) =  -511.301726910     A.U. after   12 cycles
 SCF Done:  E(RB3LYP) =  -511.300143782     A.U. after   14 cycles
 SCF Done:  E(RB3LYP) =  -511.304824738     A.U. after   12 cycles
 SCF Done:  E(RB3LYP) =  -511.304405431     A.U. after   13 cycles
 SCF Done:  E(RB3LYP) =  -511.305713938     A.U. after   12 cycles
 SCF Done:  E(RB3LYP) =  -511.306233648     A.U. after   11 cycles
 SCF Done:  E(RB3LYP) =  -511.306460706     A.U. after   11 cycles
 SCF Done:  E(RB3LYP) =  -511.306823753     A.U. after   13 cycles
 SCF Done:  E(RB3LYP) =  -511.315201980     A.U. after   12 cycles
 SCF Done:  E(RB3LYP) =  -511.315311453     A.U. after   12 cycles
 SCF Done:  E(RB3LYP) =  -511.315472282     A.U. after   11 cycles
 SCF Done:  E(RB3LYP) =  -511.315557212     A.U. after   10 cycles
 SCF Done:  E(RB3LYP) =  -511.315607717     A.U. after   11 cycles
 SCF Done:  E(RB3LYP) =  -511.315665215     A.U. after   10 cycles
 SCF Done:  E(RB3LYP) =  -511.315668192     A.U. after    8 cycles
 SCF Done:  E(RB3LYP) =  -511.315668612     A.U. after    8 cycles
 SCF Done:  E(RB3LYP) =  -511.315668718     A.U. after    7 cycles
 Optimization completed.
    -- Stationary point found.
 Normal termination of Gaussian 16 at Mon May 31 20:06:37 2021.

 ----------------------------------------------------------------------
 #N Geom=AllCheck Guess=TCheck SCRF=Check GenChk RB3LYP/6-31G(2df,p) Fr
 eq
 ----------------------------------------------------------------------

 Structure from the checkpoint file:  "CCpCCtCNpNCNNN.chk"
 -------------------
 Title Card Required
 -------------------
 Charge =  0 Multiplicity = 1

                         Standard orientation:
 ---------------------------------------------------------------------
 Center     Atomic      Atomic             Coordinates (Angstroms)
 Number     Number       Type             X           Y           Z
 ---------------------------------------------------------------------
      1          6           0        1.458075    2.385874   -0.255545
      2          6           0        0.488714    1.205173   -0.265087
      3          6           0        0.939876    0.100815    0.724694
      4          6           0        2.203073   -0.533650    0.365150
      5          6           0        3.243274   -1.061049    0.057417
      6          7           0        4.409501   -1.623862   -0.347337
      7          7           0       -0.856978    1.680829    0.083678
      8          6           0       -1.975487    0.891604   -0.386690
      9          7           0       -2.272466   -0.185662    0.563088
     10          7           0       -3.437141   -0.942172    0.245400
     11          7           0       -3.159269   -2.122260   -0.504335
     12          1           0        2.475353    2.040927   -0.453270
     13          1           0        1.444325    2.882338    0.721457
     14          1           0        1.192839    3.125121   -1.019913
     15          1           0        0.491227    0.758197   -1.275009
     16          1           0        0.145613   -0.650965    0.781843
     17          1           0        1.002146    0.546492    1.727056
     18          1           0        5.210476   -1.367198    0.216664
     19          1           0        4.366655   -2.629585   -0.458184
     20          1           0       -0.969024    2.638370   -0.222898
     21          1           0       -1.788529    0.420550   -1.369004
     22          1           0       -2.839428    1.570225   -0.512442
     23          1           0       -2.400167    0.221484    1.485100
     24          1           0       -4.066150   -0.388403   -0.335395
     25          1           0       -2.794024   -2.799600    0.159434
     26          1           0       -2.401980   -1.948668   -1.168526
 ---------------------------------------------------------------------

 SCF Done:  E(RB3LYP) =  -511.315668718     A.U. after    1 cycles

 The electronic state is 1-A.
 Alpha  occ. eigenvalues --  -14.35801 -14.35040 -14.33281 -14.32666 -14.31701
 Alpha  occ. eigenvalues --  -10.23357 -10.20932 -10.18497 -10.18284 -10.17043
 Alpha  occ. eigenvalues --  -10.15229  -0.99106  -0.91463  -0.91156  -0.85118
 Alpha  occ. eigenvalues --   -0.77777  -0.72709  -0.70057  -0.67334  -0.63560
 Alpha  occ. eigenvalues --   -0.58285  -0.53446  -0.51211  -0.50976  -0.49845
 Alpha  occ. eigenvalues --   -0.49308  -0.46843  -0.45065  -0.44588  -0.43126
 Alpha  occ. eigenvalues --   -0.41475  -0.39669  -0.38998  -0.36177  -0.35175
 Alpha  occ. eigenvalues --   -0.33780  -0.33393  -0.25936  -0.24849  -0.24295
 Alpha  occ. eigenvalues --   -0.23037  -0.22587  -0.20271
 Alpha virt. eigenvalues --    0.07026   0.07236   0.08105   0.08468   0.09832
 Alpha virt. eigenvalues --    0.10179   0.12036   0.13111   0.14575   0.15255
 Alpha virt. eigenvalues --    0.15750   0.16443   0.17140   0.17853   0.19001

 Mulliken charges:
               1
     1  C   -0.414725
     2  C    0.068792
     3  C   -0.370253
     4  C    0.458001
     5  C   -0.257293
     6  N   -0.619213
     7  N   -0.308907
     8  C   -0.108065
     9  N   -0.242653
    10  N   -0.259876
    11  N   -0.436952
    12  H    0.137449
    13  H    0.118442
    14  H    0.103835
    15  H    0.064114
    16  H    0.140675
    17  H    0.112927
    18  H    0.258661
    19  H    0.258818
    20  H    0.219677
    21  H    0.087033
    22  H    0.078033
    23  H    0.228313
    24  H    0.223226
    25  H    0.240792
    26  H    0.219149
 Sum of Mulliken charges =  -0.00000

 Dipole moment (field-independent basis, Debye):
    X=              1.8044    Y=              0.8267    Z=             -0.3191  Tot=              2.0102
 Quadrupole moment (field-independent basis, Debye-Ang):
   XX=            -63.6179   YY=            -60.6341   ZZ=            -68.3941
   XY=            -13.6929   XZ=              4.0148   YZ=             -1.5548

  Exact polarizability: 132.342 -11.500 105.751  -3.514   3.420  77.226
 Approx polarizability: 173.329 -21.748 144.072 -10.989  10.029 122.198

                      1                      2                      3
                      A                      A                      A
 Frequencies --     32.9517                38.3641                72.5847
 Red. masses --      4.3512                 2.9288                 3.7112
 Frc consts  --      0.0028                 0.0025                 0.0115
 IR Inten    --      0.6860                 0.4064                 1.6626

                      4                      5                      6
                      A                      A                      A
 Frequencies --     78.3202               100.4790               108.9172
 Red. masses --      3.5157                 1.0674                 2.8327
 Frc consts  --      0.0127                 0.0063                 0.0198
 IR Inten    --      2.1159                24.0782                 6.9520

                      7                      8                      9
                      A                      A                      A
 Frequencies --    139.4324               221.2386               231.5951
 Red. masses --      3.0486                 2.9464                 1.5656
 Frc consts  --      0.0349                 0.0850                 0.0495
 IR Inten    --      1.3300                 1.7872                 4.5863

                     10                     11                     12
                      A                      A                      A
 Frequencies --    251.1800               287.2896               302.2638
 Red. masses --      1.5236                 2.2393                 2.4292
 Frc consts  --      0.0566                 0.1089                 0.1308
 IR Inten    --      9.1614                 1.7340                22.8218

                     13                     14                     15
                      A                      A                      A
 Frequencies --    311.3517               380.8548               415.8029
 Red. masses --      2.6581                 1.7526                 3.2231
 Frc consts  --      0.1518                 0.1498                 0.3283
 IR Inten    --      0.5354                 6.0595                23.9468

                     16                     17                     18
                      A                      A                      A
 Frequencies --    425.0890               434.2904               490.6243
 Red. masses --      4.0572                 2.4307                 3.2511
 Frc consts  --      0.4320                 0.2701                 0.4611
 IR Inten    --      2.9597                17.3210                14.3049

                     19                     20                     21
                      A                      A                      A
 Frequencies --    499.5013               587.0228               662.0261
 Red. masses --      3.4043                 2.2315                 1.5268
 Frc consts  --      0.5004                 0.4531                 0.3943
 IR Inten    --     13.4882                14.5068               235.7926

                     22                     23                     24
                      A                      A                      A
 Frequencies --    692.0909               778.0762               827.0448
 Red. masses --      2.0647                 1.9534                 3.0051
 Frc consts  --      0.5827                 0.6968                 1.2111
 IR Inten    --     60.2935                42.2217                32.7553

                     25                     26                     27
                      A                      A                      A
 Frequencies --    840.0860               850.5342               891.0600
 Red. masses --      2.2873                 2.2512                 1.3940
 Frc consts  --      0.9511                 0.9595                 0.6521
 IR Inten    --      2.0304                95.3290                 1.2523

                     28                     29                     30
                      A                      A                      A
 Frequencies --    933.8856               982.8705              1052.7334
 Red. masses --      1.8796                 1.4920                 1.6032
 Frc consts  --      0.9658                 0.8492                 1.0468
 IR Inten    --      1.4985                83.7920                 6.2776

                     31                     32                     33
                      A                      A                      A
 Frequencies --   1063.2078              1088.3560              1106.2143
 Red. masses --      2.9800                 3.2282                 1.7725
 Frc consts  --      1.9848                 2.2529                 1.2780
 IR Inten    --      9.7416                33.2510                 9.3010

                     34                     35                     36
                      A                      A                      A
 Frequencies --   1142.5561              1165.1747              1180.8556
 Red. masses --      2.0044                 2.5533                 2.1386
 Frc consts  --      1.5417                 2.0423                 1.7570
 IR Inten    --      4.2807                50.4290                18.7784

                     37                     38                     39
                      A                      A                      A
 Frequencies --   1201.2256              1216.6401              1243.9829
 Red. masses --      1.2567                 2.1511                 1.5364
 Frc consts  --      1.0684                 1.8760                 1.4008
 IR Inten    --      0.1729                64.6109                27.0156

                     40                     41                     42
                      A                      A                      A
 Frequencies --   1259.8861              1291.9146              1319.0175
 Red. masses --      2.0143                 1.2290                 1.4206
 Frc consts  --      1.8838                 1.2086                 1.4563
 IR Inten    --      3.4190                 0.4775                 1.1049

                     43                     44                     45
                      A                      A                      A
 Frequencies --   1328.0076              1360.2660              1378.3544
 Red. masses --      1.2388                 1.2894                 1.3531
 Frc consts  --      1.2873                 1.4057                 1.5146
 IR Inten    --      1.6912                 4.1862                34.3054

                     46                     47                     48
                      A                      A                      A
 Frequencies --   1407.3719              1414.7316              1467.6802
 Red. masses --      1.3251                 1.2714                 1.1508
 Frc consts  --      1.5464                 1.4993                 1.4606
 IR Inten    --     15.5767                19.6576                39.9951

                     49                     50                     51
                      A                      A                      A
 Frequencies --   1473.6931              1488.4010              1498.7296
 Red. masses --      1.0952                 1.1442                 1.0609
 Frc consts  --      1.4014                 1.4934                 1.4040
 IR Inten    --      1.8237                 0.5375                 0.8508

                     52                     53                     54
                      A                      A                      A
 Frequencies --   1503.4800              1509.7608              1530.6498
 Red. masses --      1.1063                 1.1495                 1.1119
 Frc consts  --      1.4734                 1.5437                 1.5348
 IR Inten    --      6.7005                 3.3009                 0.9415

                     55                     56                     57
                      A                      A                      A
 Frequencies --   1641.5460              1691.2884              2378.2198
 Red. masses --      1.1028                 1.0619                11.5855
 Frc consts  --      1.7509                 1.7897                38.6071
 IR Inten    --     14.6050                12.3675                88.9426

                     58                     59                     60
                      A                      A                      A
 Frequencies --   2916.9404              2938.1369              2945.8898
 Red. masses --      1.0539                 1.0836                 1.1035
 Frc consts  --      5.2830                 5.5116                 5.6423
 IR Inten    --     90.4042                22.7284                76.6273

                     61                     62                     63
                      A                      A                      A
 Frequencies --   3015.3656              3028.3518              3072.6253
 Red. masses --      1.0661                 1.0377                 1.0936
 Frc consts  --      5.7114                 5.6068                 6.0830
 IR Inten    --     22.4936                26.9834                 6.4161

                     64                     65                     66
                      A                      A                      A
 Frequencies --   3091.0895              3128.4408              3408.3784
 Red. masses --      1.1013                 1.0986                 1.0549
 Frc consts  --      6.2001                 6.3352                 7.2202
 IR Inten    --     31.9261                14.4786                 8.0525

                     67                     68                     69
                      A                      A                      A
 Frequencies --   3432.6419              3503.6848              3519.7394
 Red. masses --      1.0738                 1.0752                 1.0459
 Frc consts  --      7.4545                 7.7769                 7.6345
 IR Inten    --      9.7406                 2.3381                 9.5257

                     70                     71                     72
                      A                      A                      A
 Frequencies --   3530.5136              3560.6591              3599.2429
 Red. masses --      1.0854                 1.0749                 1.0967
 Frc consts  --      7.9714                 8.0291                 8.3704
 IR Inten    --      0.2616                 0.9072                18.2107

 - Thermochemistry -
 -------------------
 Temperature   298.150 Kelvin.  Pressure   1.00000 Atm.
 Atom     1 has atomic number  6 and mass  12.00000

 Molecular mass:   157.13275 amu.
 Principal axes and moments of inertia in atomic units:
                           1         2         3
     Eigenvalues --  1264.365493826.618664839.58160
           X            0.99999   0.00129   0.00331
           Y           -0.00127   0.99999  -0.00484
           Z           -0.00332   0.00484   0.99998
 This molecule is an asymmetric top.
 Rotational symmetry number  1.
 Warning -- assumption of classical behavior for rotation
           may cause significant error
 Rotational temperatures (Kelvin)      0.06850     0.02263     0.01790
 Rotational constants (GHZ):           1.42739     0.47163     0.37291
 Zero-point vibrational energy     597908.4 (Joules/Mol)
                                  142.90353 (Kcal/Mol)
 Warning -- explicit consideration of  20 degrees of freedom as
           vibrations may cause significant error
 Vibrational temperatures:     47.41    55.20   104.43   112.69   144.57
          (Kelvin)            156.71   200.61   318.31   333.21   361.39
                              413.35   434.89   447.97   547.97   598.25
                              611.61   624.85   705.90   718.67   844.59
                              952.51   995.76  1119.48  1189.93  1208.70
                             1223.73  1282.04  1343.65  1414.13  1514.65
                             1529.72  1565.90  1591.60  1643.88  1676.43
                             1698.99  1728.30  1750.47  1789.81  1812.70
                             1858.78  1897.77  1910.71  1957.12  1983.14
                             2024.89  2035.48  2111.66  2120.32  2141.48
                             2156.34  2163.17  2172.21  2202.26  2361.82
                             2433.39  3421.73  4196.83  4227.32  4238.48
                             4338.44  4357.12  4420.82  4447.39  4501.13
                             4903.90  4938.81  5041.02  5064.12  5079.62
                             5122.99  5178.51

 Zero-point correction=                           0.227731 (Hartree/Particle)
 Thermal correction to Energy=                    0.241574
 Thermal correction to Enthalpy=                  0.242518
 Thermal correction to Gibbs Free Energy=         0.185973
 Sum of electronic and zero-point Energies=           -511.087937
 Sum of electronic and thermal Energies=              -511.074095
 Sum of electronic and thermal Enthalpies=            -511.073151
 Sum of electronic and thermal Free Energies=         -511.129696

                     E (Thermal)             CV                S
                      KCal/Mol        Cal/Mol-Kelvin    Cal/Mol-Kelvin
 Total                  151.590             49.070            119.010
 Electronic               0.000              0.000              0.000
 Translational            0.889              2.981             41.065
 Rotational               0.889              2.981             31.527
 Vibrational            149.812             43.108             46.418
 Vibration     1          0.594              1.983              5.643
 Vibration     2          0.594              1.982              5.342
 Vibration     3          0.599              1.967              4.082
 Vibration     4          0.600              1.964              3.933
 Vibration     5          0.604              1.949              3.445
 Vibration     6          0.606              1.942              3.288
 Vibration     7          0.615              1.914              2.812
 Vibration     8          0.648              1.809              1.949
 Vibration     9          0.653              1.793              1.867
 Vibration    10          0.663              1.761              1.722
 Vibration    11          0.684              1.697              1.490
 Vibration    12          0.694              1.669              1.404
 Vibration    13          0.700              1.652              1.355
 Vibration    14          0.751              1.511              1.036
 Vibration    15          0.779              1.436              0.906
 Vibration    16          0.787              1.416              0.875
 Vibration    17          0.795              1.395              0.845
 Vibration    18          0.846              1.271              0.682
 Vibration    19          0.855              1.251              0.659
 Vibration    20          0.944              1.059              0.473

 Optimization completed.
    -- Stationary point found.
 Normal termination of Gaussian 16 at Mon May 31 21:00:02 2021.
