 Gaussian 16, Revision A.03,
 Gaussian 16:  ES64L-G16RevA.03 25-Dec-2016

 -----------------------------
 # opt freq b3lyp/6-31g(2df,p)
 -----------------------------

 -------------------
 Title Card Required
 -------------------
 Symbolic Z-matrix:
 Charge =  0 Multiplicity = 1

 SCF Done:  E(RB3LYP) =  -269.132559026     A.U. after   12 cycles
 SCF Done:  E(RB3LYP) =  -269.135324707     A.U. after   10 cycles
 SCF Done:  E(RB3LYP) =  -269.135853265     A.U. after   10 cycles
 SCF Done:  E(RB3LYP) =  -269.135921843     A.U. after    9 cycles
 SCF Done:  E(RB3LYP) =  -269.135930195     A.U. after    9 cycles
 SCF Done:  E(RB3LYP) =  -269.135933086     A.U. after    7 cycles
 SCF Done:  E(RB3LYP) =  -269.135933147     A.U. after    7 cycles
 SCF Done:  E(RB3LYP) =  -269.135933402     A.U. after    6 cycles
 Optimization completed.
    -- Stationary point found.
 Normal termination of Gaussian 16 at Mon May 31 18:55:39 2021.

 ----------------------------------------------------------------------
 #N Geom=AllCheck Guess=TCheck SCRF=Check GenChk RB3LYP/6-31G(2df,p) Fr
 eq
 ----------------------------------------------------------------------

 Structure from the checkpoint file:  "CCpCpNpCpN.chk"
 -------------------
 Title Card Required
 -------------------
 Charge =  0 Multiplicity = 1

                         Standard orientation:
 ---------------------------------------------------------------------
 Center     Atomic      Atomic             Coordinates (Angstroms)
 Number     Number       Type             X           Y           Z
 ---------------------------------------------------------------------
      1          6           0       -1.366702    1.328852   -0.030342
      2          6           0       -0.645274    0.020752    0.319092
      3          6           0       -1.507417   -1.172583   -0.109796
      4          7           0        0.681906   -0.047991   -0.319661
      5          6           0        1.536514    1.095647   -0.025585
      6          7           0        1.414407   -1.223997    0.034534
      7          1           0       -2.393152    1.297683    0.346466
      8          1           0       -1.405653    1.462581   -1.116668
      9          1           0       -0.883706    2.204468    0.408341
     10          1           0       -0.521649   -0.020525    1.423008
     11          1           0       -1.631849   -1.178636   -1.197993
     12          1           0       -2.497523   -1.106361    0.350510
     13          1           0       -1.071352   -2.128407    0.191012
     14          1           0        1.124798    2.006282   -0.465334
     15          1           0        2.516174    0.906335   -0.465608
     16          1           0        1.674591    1.266558    1.059778
     17          1           0        1.028032   -2.002921   -0.487750
     18          1           0        1.284380   -1.439147    1.029917
 ---------------------------------------------------------------------

 SCF Done:  E(RB3LYP) =  -269.135933402     A.U. after    1 cycles

 The electronic state is 1-A.
 Alpha  occ. eigenvalues --  -14.33703 -14.32808 -10.21057 -10.18870 -10.17333
 Alpha  occ. eigenvalues --  -10.17332  -0.96144  -0.80329  -0.75377  -0.68263
 Alpha  occ. eigenvalues --   -0.64378  -0.56506  -0.49957  -0.47964  -0.44907
 Alpha  occ. eigenvalues --   -0.44253  -0.40363  -0.38935  -0.38502  -0.38057
 Alpha  occ. eigenvalues --   -0.35333  -0.33897  -0.33273  -0.24609  -0.21538
 Alpha virt. eigenvalues --    0.07421   0.11038   0.11825   0.12934   0.15542
 Alpha virt. eigenvalues --    0.15934   0.16744   0.17465   0.17723   0.18787
 Alpha virt. eigenvalues --    0.19364   0.19907   0.21202   0.22889   0.24164

 Mulliken charges:
               1
     1  C   -0.402135
     2  C    0.111037
     3  C   -0.393116
     4  N   -0.069262
     5  C   -0.289883
     6  N   -0.468315
     7  H    0.112862
     8  H    0.124436
     9  H    0.118681
    10  H    0.042635
    11  H    0.121513
    12  H    0.113608
    13  H    0.100867
    14  H    0.116482
    15  H    0.130052
    16  H    0.081839
    17  H    0.241656
    18  H    0.207045
 Sum of Mulliken charges =  -0.00000

 Dipole moment (field-independent basis, Debye):
    X=             -1.1544    Y=             -0.2034    Z=              0.8537  Tot=              1.4500
 Quadrupole moment (field-independent basis, Debye-Ang):
   XX=            -42.2622   YY=            -36.9292   ZZ=            -39.8146
   XY=              0.9560   XZ=              0.7782   YZ=             -0.5169

  Exact polarizability:  65.059   0.213  65.171   0.544  -0.480  53.045
 Approx polarizability:  83.806  -1.373  86.699   0.068  -0.754  82.347

                      1                      2                      3
                      A                      A                      A
 Frequencies --     86.5265               200.9940               221.4464
 Red. masses --      2.6258                 1.1355                 1.0780
 Frc consts  --      0.0116                 0.0270                 0.0311
 IR Inten    --      0.3333                 0.1213                 0.5331

                      4                      5                      6
                      A                      A                      A
 Frequencies --    245.1842               299.8161               330.4203
 Red. masses --      1.2811                 1.5378                 2.3522
 Frc consts  --      0.0454                 0.0814                 0.1513
 IR Inten    --      0.2968                19.2278                 1.4235

                      7                      8                      9
                      A                      A                      A
 Frequencies --    361.3512               407.8911               451.7175
 Red. masses --      1.3079                 1.8941                 2.5654
 Frc consts  --      0.1006                 0.1857                 0.3084
 IR Inten    --     12.0189                 1.2826                 1.7616

                     10                     11                     12
                      A                      A                      A
 Frequencies --    480.7814               527.4323               752.6178
 Red. masses --      2.7658                 2.2488                 2.8061
 Frc consts  --      0.3767                 0.3686                 0.9365
 IR Inten    --      4.4387                 6.0968                17.6405

                     13                     14                     15
                      A                      A                      A
 Frequencies --    893.5003               922.8304               936.0466
 Red. masses --      2.6499                 1.3907                 1.4705
 Frc consts  --      1.2464                 0.6978                 0.7591
 IR Inten    --      6.5442                29.3452                37.2044

                     16                     17                     18
                      A                      A                      A
 Frequencies --    959.3596              1018.8104              1110.9356
 Red. masses --      1.4932                 1.9015                 1.5473
 Frc consts  --      0.8097                 1.1629                 1.1251
 IR Inten    --      2.2871                60.9320                 1.5703

                     19                     20                     21
                      A                      A                      A
 Frequencies --   1126.6934              1150.3733              1192.9933
 Red. masses --      1.8044                 1.4106                 1.8775
 Frc consts  --      1.3496                 1.0998                 1.5744
 IR Inten    --     18.1377                 5.1288                 5.5439

                     22                     23                     24
                      A                      A                      A
 Frequencies --   1238.2029              1243.7302              1317.4377
 Red. masses --      2.9138                 2.1784                 1.2532
 Frc consts  --      2.6321                 1.9854                 1.2815
 IR Inten    --      7.3641                 7.2468                15.4790

                     25                     26                     27
                      A                      A                      A
 Frequencies --   1360.5731              1373.7481              1396.9243
 Red. masses --      1.4243                 1.3261                 1.3372
 Frc consts  --      1.5535                 1.4745                 1.5375
 IR Inten    --      4.7729                30.8061                10.4190

                     28                     29                     30
                      A                      A                      A
 Frequencies --   1414.9042              1447.4067              1483.9256
 Red. masses --      1.2347                 1.1693                 1.0522
 Frc consts  --      1.4564                 1.4433                 1.3652
 IR Inten    --     11.9422                 1.3224                 1.6007

                     31                     32                     33
                      A                      A                      A
 Frequencies --   1489.1773              1496.2436              1501.4166
 Red. masses --      1.0565                 1.0481                 1.0474
 Frc consts  --      1.3804                 1.3825                 1.3912
 IR Inten    --     11.0897                 5.0846                 4.1509

                     34                     35                     36
                      A                      A                      A
 Frequencies --   1504.6201              1521.1848              1666.9459
 Red. masses --      1.0543                 1.0509                 1.0831
 Frc consts  --      1.4062                 1.4327                 1.7732
 IR Inten    --      3.0166                 3.4576                13.1252

                     37                     38                     39
                      A                      A                      A
 Frequencies --   2863.1780              2921.9005              3037.5263
 Red. masses --      1.0797                 1.0621                 1.0358
 Frc consts  --      5.2152                 5.3425                 5.6305
 IR Inten    --     64.3357                86.9092                20.0809

                     40                     41                     42
                      A                      A                      A
 Frequencies --   3042.8948              3093.1436              3106.6311
 Red. masses --      1.0366                 1.0705                 1.1015
 Frc consts  --      5.6551                 6.0342                 6.2632
 IR Inten    --     15.0475                27.2771                 1.1189

                     43                     44                     45
                      A                      A                      A
 Frequencies --   3113.1078              3115.2094              3124.2260
 Red. masses --      1.1007                 1.1005                 1.0993
 Frc consts  --      6.2848                 6.2923                 6.3218
 IR Inten    --     39.3294                34.5832                29.7569

                     46                     47                     48
                      A                      A                      A
 Frequencies --   3144.9034              3343.9769              3550.9922
 Red. masses --      1.1024                 1.0585                 1.0811
 Frc consts  --      6.4240                 6.9735                 8.0315
 IR Inten    --     16.5516                23.5341                 0.3629

 - Thermochemistry -
 -------------------
 Temperature   298.150 Kelvin.  Pressure   1.00000 Atm.
 Atom     1 has atomic number  6 and mass  12.00000

 Molecular mass:    88.10005 amu.
 Principal axes and moments of inertia in atomic units:
                           1         2         3
     Eigenvalues --   401.44428 573.64362 897.40192
           X            0.99853   0.05330   0.00983
           Y           -0.05328   0.99858  -0.00189
           Z           -0.00992   0.00136   0.99995
 This molecule is an asymmetric top.
 Rotational symmetry number  1.
 Rotational temperatures (Kelvin)      0.21576     0.15099     0.09652
 Rotational constants (GHZ):           4.49562     3.14610     2.01107
 Zero-point vibrational energy     434195.7 (Joules/Mol)
                                  103.77526 (Kcal/Mol)
 Warning -- explicit consideration of  11 degrees of freedom as
           vibrations may cause significant error
 Vibrational temperatures:    124.49   289.19   318.61   352.77   431.37
          (Kelvin)            475.40   519.90   586.86   649.92   691.74
                              758.86  1082.85  1285.55  1327.75  1346.76
                             1380.30  1465.84  1598.39  1621.06  1655.13
                             1716.45  1781.50  1789.45  1895.50  1957.56
                             1976.52  2009.86  2035.73  2082.50  2135.04
                             2142.59  2152.76  2160.20  2164.81  2188.65
                             2398.36  4119.47  4203.96  4370.32  4378.05
                             4450.34  4469.75  4479.07  4482.09  4495.06
                             4524.81  4811.24  5109.09

 Zero-point correction=                           0.165376 (Hartree/Particle)
 Thermal correction to Energy=                    0.173225
 Thermal correction to Enthalpy=                  0.174169
 Thermal correction to Gibbs Free Energy=         0.134321
 Sum of electronic and zero-point Energies=           -268.970557
 Sum of electronic and thermal Energies=              -268.962708
 Sum of electronic and thermal Enthalpies=            -268.961764
 Sum of electronic and thermal Free Energies=         -269.001612

                     E (Thermal)             CV                S
                      KCal/Mol        Cal/Mol-Kelvin    Cal/Mol-Kelvin
 Total                  108.701             28.919             83.868
 Electronic               0.000              0.000              0.000
 Translational            0.889              2.981             39.340
 Rotational               0.889              2.981             26.827
 Vibrational            106.923             22.958             17.701
 Vibration     1          0.601              1.959              3.737
 Vibration     2          0.638              1.838              2.124
 Vibration     3          0.648              1.808              1.947
 Vibration     4          0.660              1.771              1.765
 Vibration     5          0.692              1.674              1.418
 Vibration     6          0.713              1.615              1.258
 Vibration     7          0.736              1.552              1.116
 Vibration     8          0.772              1.453              0.934
 Vibration     9          0.810              1.357              0.791
 Vibration    10          0.837              1.293              0.708
 Vibration    11          0.882              1.189              0.593

 Optimization completed.
    -- Stationary point found.
 Normal termination of Gaussian 16 at Mon May 31 19:15:40 2021.
