 Gaussian 16, Revision A.03,
 Gaussian 16:  ES64L-G16RevA.03 25-Dec-2016

 -----------------------------
 # opt freq b3lyp/6-31g(2df,p)
 -----------------------------

 -------------------
 Title Card Required
 -------------------
 Symbolic Z-matrix:
 Charge =  0 Multiplicity = 1

 SCF Done:  E(RB3LYP) =  -369.833947485     A.U. after   12 cycles
 SCF Done:  E(RB3LYP) =  -369.837332599     A.U. after   11 cycles
 SCF Done:  E(RB3LYP) =  -369.837813477     A.U. after   10 cycles
 SCF Done:  E(RB3LYP) =  -369.837895201     A.U. after    9 cycles
 SCF Done:  E(RB3LYP) =  -369.837914255     A.U. after    9 cycles
 SCF Done:  E(RB3LYP) =  -369.837948359     A.U. after   10 cycles
 SCF Done:  E(RB3LYP) =  -369.838250108     A.U. after   11 cycles
 SCF Done:  E(RB3LYP) =  -369.838303643     A.U. after   11 cycles
 SCF Done:  E(RB3LYP) =  -369.838990079     A.U. after   10 cycles
 SCF Done:  E(RB3LYP) =  -369.840433661     A.U. after   11 cycles
 SCF Done:  E(RB3LYP) =  -369.845205150     A.U. after   12 cycles
 SCF Done:  E(RB3LYP) =  -369.845106836     A.U. after   11 cycles
 SCF Done:  E(RB3LYP) =  -369.845211972     A.U. after   11 cycles
 SCF Done:  E(RB3LYP) =  -369.845209131     A.U. after    9 cycles
 SCF Done:  E(RB3LYP) =  -369.845212533     A.U. after    9 cycles
 SCF Done:  E(RB3LYP) =  -369.845211235     A.U. after    9 cycles
 SCF Done:  E(RB3LYP) =  -369.845212562     A.U. after    9 cycles
 SCF Done:  E(RB3LYP) =  -369.845212529     A.U. after    7 cycles
 SCF Done:  E(RB3LYP) =  -369.845212562     A.U. after    7 cycles
 Optimization completed.
    -- Stationary point found.
 Normal termination of Gaussian 16 at Tue Jun  1 01:25:56 2021.

 ----------------------------------------------------------------------
 #N Geom=AllCheck Guess=TCheck SCRF=Check GenChk RB3LYP/6-31G(2df,p) Fr
 eq
 ----------------------------------------------------------------------

 Structure from the checkpoint file:  "CCpCpdCCCNpCpC.chk"
 -------------------
 Title Card Required
 -------------------
 Charge =  0 Multiplicity = 1

                         Standard orientation:
 ---------------------------------------------------------------------
 Center     Atomic      Atomic             Coordinates (Angstroms)
 Number     Number       Type             X           Y           Z
 ---------------------------------------------------------------------
      1          6           0       -3.702004   -0.452460   -0.779785
      2          6           0       -2.479933   -0.023688   -0.005899
      3          6           0       -2.698875    1.174602    0.881807
      4          6           0       -1.325265   -0.687978   -0.127028
      5          6           0       -0.008893   -0.416356    0.545625
      6          6           0        1.084169   -0.044378   -0.472342
      7          7           0        2.369336    0.277027    0.142009
      8          6           0        3.035763   -0.883924    0.710656
      9          6           0        3.244736    0.969140   -0.790499
     10          1           0       -4.066212    0.358211   -1.424745
     11          1           0       -4.530616   -0.703157   -0.104194
     12          1           0       -3.501527   -1.323551   -1.408958
     13          1           0       -3.048678    2.032083    0.292326
     14          1           0       -1.802570    1.482728    1.421831
     15          1           0       -3.484436    0.970375    1.621107
     16          1           0       -1.311726   -1.537949   -0.810408
     17          1           0        0.295497   -1.317326    1.094579
     18          1           0       -0.079301    0.387601    1.282817
     19          1           0        0.748755    0.842661   -1.021041
     20          1           0        1.181544   -0.855890   -1.222992
     21          1           0        2.417305   -1.346076    1.483932
     22          1           0        3.974713   -0.573631    1.179818
     23          1           0        3.274035   -1.659142   -0.044866
     24          1           0        2.757507    1.878899   -1.154938
     25          1           0        3.521745    0.355569   -1.670560
     26          1           0        4.170421    1.259648   -0.282987
 ---------------------------------------------------------------------

 SCF Done:  E(RB3LYP) =  -369.845212562     A.U. after    1 cycles

 The electronic state is 1-A.
 Alpha  occ. eigenvalues --  -14.31377 -10.19817 -10.19428 -10.19399 -10.18277
 Alpha  occ. eigenvalues --  -10.17524 -10.17412 -10.17333 -10.16785  -0.91313
 Alpha  occ. eigenvalues --   -0.80777  -0.75373  -0.69787  -0.68603  -0.67798
 Alpha  occ. eigenvalues --   -0.62026  -0.56912  -0.51172  -0.47348  -0.46649
 Alpha  occ. eigenvalues --   -0.45038  -0.44312  -0.42478  -0.41926  -0.40392
 Alpha  occ. eigenvalues --   -0.38335  -0.37812  -0.36929  -0.36325  -0.36010
 Alpha  occ. eigenvalues --   -0.35654  -0.34343  -0.32988  -0.31848  -0.22928
 Alpha  occ. eigenvalues --   -0.20631
 Alpha virt. eigenvalues --    0.03345   0.08656   0.09867   0.12192   0.12329
 Alpha virt. eigenvalues --    0.13881   0.14630   0.15200   0.15715   0.16192
 Alpha virt. eigenvalues --    0.16807   0.17423   0.17721   0.18636   0.18745

 Mulliken charges:
               1
     1  C   -0.457109
     2  C    0.317366
     3  C   -0.477002
     4  C   -0.125565
     5  C   -0.275542
     6  C   -0.109719
     7  N   -0.049525
     8  C   -0.315919
     9  C   -0.312397
    10  H    0.118028
    11  H    0.118216
    12  H    0.116729
    13  H    0.120867
    14  H    0.125344
    15  H    0.121586
    16  H    0.070262
    17  H    0.102183
    18  H    0.105971
    19  H    0.098911
    20  H    0.069575
    21  H    0.119790
    22  H    0.115139
    23  H    0.086387
    24  H    0.115268
    25  H    0.087304
    26  H    0.113850
 Sum of Mulliken charges =  -0.00000

 Dipole moment (field-independent basis, Debye):
    X=             -0.0825    Y=             -0.0784    Z=             -0.2503  Tot=              0.2749
 Quadrupole moment (field-independent basis, Debye-Ang):
   XX=            -55.8045   YY=            -58.4138   ZZ=            -59.2660
   XY=             -1.2512   XZ=             -0.3666   YZ=             -0.6637

  Exact polarizability: 130.510  -6.955  87.195   1.441   2.536  81.656
 Approx polarizability: 157.794 -14.771 130.238   1.091   5.088 120.027

                      1                      2                      3
                      A                      A                      A
 Frequencies --     29.1649                46.5242                90.3535
 Red. masses --      2.5694                 2.9794                 2.6215
 Frc consts  --      0.0013                 0.0038                 0.0126
 IR Inten    --      0.2518                 0.0140                 0.2014

                      4                      5                      6
                      A                      A                      A
 Frequencies --    107.6540               149.7068               195.3672
 Red. masses --      2.0734                 1.0480                 1.1898
 Frc consts  --      0.0142                 0.0138                 0.0268
 IR Inten    --      0.2898                 0.0987                 0.6172

                      7                      8                      9
                      A                      A                      A
 Frequencies --    233.3900               246.7005               257.7518
 Red. masses --      1.6626                 1.1506                 1.3861
 Frc consts  --      0.0534                 0.0413                 0.0543
 IR Inten    --      0.8197                 0.4419                 0.4187

                     10                     11                     12
                      A                      A                      A
 Frequencies --    293.3607               312.9968               370.8774
 Red. masses --      2.2420                 2.4683                 2.3000
 Frc consts  --      0.1137                 0.1425                 0.1864
 IR Inten    --      1.3508                 0.7599                 4.5253

                     13                     14                     15
                      A                      A                      A
 Frequencies --    401.4045               428.3636               456.5901
 Red. masses --      2.2438                 2.5993                 2.2897
 Frc consts  --      0.2130                 0.2810                 0.2812
 IR Inten    --      0.9880                 1.3612                 0.6941

                     16                     17                     18
                      A                      A                      A
 Frequencies --    493.9291               559.2354               763.0992
 Red. masses --      2.2538                 2.7151                 1.6345
 Frc consts  --      0.3240                 0.5003                 0.5608
 IR Inten    --      0.6300                 6.9591                 2.1801

                     19                     20                     21
                      A                      A                      A
 Frequencies --    820.6665               844.0966               883.6867
 Red. masses --      1.8534                 1.9514                 2.0261
 Frc consts  --      0.7355                 0.8192                 0.9322
 IR Inten    --      0.3263                14.8998                10.7877

                     22                     23                     24
                      A                      A                      A
 Frequencies --    961.9886              1004.0193              1021.4551
 Red. masses --      1.4175                 1.8305                 1.2825
 Frc consts  --      0.7729                 1.0872                 0.7884
 IR Inten    --      0.1903                 1.4901                 1.8079

                     25                     26                     27
                      A                      A                      A
 Frequencies --   1031.9296              1062.4220              1072.1658
 Red. masses --      3.1748                 1.7797                 1.7478
 Frc consts  --      1.9919                 1.1836                 1.1838
 IR Inten    --      8.9096                30.7610                11.7549

                     28                     29                     30
                      A                      A                      A
 Frequencies --   1073.4980              1104.6627              1121.9295
 Red. masses --      2.0832                 1.6782                 1.2789
 Frc consts  --      1.4144                 1.2066                 0.9484
 IR Inten    --     23.5819                 0.0878                 5.8023

                     31                     32                     33
                      A                      A                      A
 Frequencies --   1133.7043              1158.3161              1198.3246
 Red. masses --      1.9487                 1.3561                 1.7306
 Frc consts  --      1.4757                 1.0720                 1.4642
 IR Inten    --      8.9876                13.2170                10.8269

                     34                     35                     36
                      A                      A                      A
 Frequencies --   1229.4681              1268.6409              1301.2494
 Red. masses --      2.3372                 1.6518                 2.0663
 Frc consts  --      2.0815                 1.5663                 2.0614
 IR Inten    --      6.4625                 5.2221                18.3276

                     37                     38                     39
                      A                      A                      A
 Frequencies --   1312.2846              1339.0090              1383.6373
 Red. masses --      1.5425                 1.2770                 1.2950
 Frc consts  --      1.5651                 1.3490                 1.4607
 IR Inten    --      2.6538                 8.7789                 2.8246

                     40                     41                     42
                      A                      A                      A
 Frequencies --   1405.3143              1410.0239              1421.7099
 Red. masses --      1.4053                 1.3567                 1.2613
 Frc consts  --      1.6351                 1.5892                 1.5021
 IR Inten    --     22.0326                 6.4349                 0.9624

                     43                     44                     45
                      A                      A                      A
 Frequencies --   1442.9616              1470.6506              1471.9334
 Red. masses --      1.1552                 1.0877                 1.0976
 Frc consts  --      1.4172                 1.3860                 1.4011
 IR Inten    --      1.8501                 0.4560                 0.0226

                     46                     47                     48
                      A                      A                      A
 Frequencies --   1477.9795              1483.3420              1489.1330
 Red. masses --      1.0836                 1.0529                 1.0693
 Frc consts  --      1.3946                 1.3649                 1.3971
 IR Inten    --      0.5198                10.5431                 8.1087

                     49                     50                     51
                      A                      A                      A
 Frequencies --   1490.4302              1493.9457              1499.5245
 Red. masses --      1.0428                 1.0654                 1.0666
 Frc consts  --      1.3648                 1.4009                 1.4130
 IR Inten    --     10.4290                 1.6340                 5.3573

                     52                     53                     54
                      A                      A                      A
 Frequencies --   1500.2880              1507.5292              1513.5472
 Red. masses --      1.0615                 1.0960                 1.0612
 Frc consts  --      1.4078                 1.4675                 1.4323
 IR Inten    --      4.4130                 5.7679                 7.6342

                     55                     56                     57
                      A                      A                      A
 Frequencies --   1745.0257              2889.1492              2907.0163
 Red. masses --      6.6847                 1.0717                 1.0613
 Frc consts  --     11.9933                 5.2708                 5.2844
 IR Inten    --      2.4499                42.1378                43.2586

                     58                     59                     60
                      A                      A                      A
 Frequencies --   2918.9712              3009.5478              3017.1658
 Red. masses --      1.0627                 1.0388                 1.0535
 Frc consts  --      5.3348                 5.5436                 5.6506
 IR Inten    --    161.1302                27.7690                51.6719

                     61                     62                     63
                      A                      A                      A
 Frequencies --   3019.0004              3053.9029              3054.1022
 Red. masses --      1.0557                 1.0986                 1.0752
 Frc consts  --      5.6693                 6.0365                 5.9087
 IR Inten    --     15.8405                 9.5277                18.9653

                     64                     65                     66
                      A                      A                      A
 Frequencies --   3057.1751              3058.7291              3067.5867
 Red. masses --      1.0789                 1.0975                 1.0702
 Frc consts  --      5.9411                 6.0497                 5.9332
 IR Inten    --     31.3834                48.5958                35.0775

                     67                     68                     69
                      A                      A                      A
 Frequencies --   3092.6259              3100.6214              3108.7823
 Red. masses --      1.0918                 1.1027                 1.0977
 Frc consts  --      6.1525                 6.2459                 6.2502
 IR Inten    --     12.7412                36.4445                 5.2438

                     70                     71                     72
                      A                      A                      A
 Frequencies --   3113.4822              3117.3531              3133.1273
 Red. masses --      1.1003                 1.0890                 1.0944
 Frc consts  --      6.2841                 6.2354                 6.3295
 IR Inten    --     32.8925                48.9248                27.5712

 - Thermochemistry -
 -------------------
 Temperature   298.150 Kelvin.  Pressure   1.00000 Atm.
 Atom     1 has atomic number  6 and mass  12.00000

 Molecular mass:   127.13610 amu.
 Principal axes and moments of inertia in atomic units:
                           1         2         3
     Eigenvalues --   478.030643159.564623211.42911
           X            0.99999  -0.00517  -0.00140
           Y            0.00522   0.99946   0.03240
           Z            0.00123  -0.03240   0.99947
 This molecule is an asymmetric top.
 Rotational symmetry number  1.
 Warning -- assumption of classical behavior for rotation
           may cause significant error
 Rotational temperatures (Kelvin)      0.18119     0.02741     0.02697
 Rotational constants (GHZ):           3.77537     0.57120     0.56197
 Zero-point vibrational energy     623884.3 (Joules/Mol)
                                  149.11192 (Kcal/Mol)
 Warning -- explicit consideration of  17 degrees of freedom as
           vibrations may cause significant error
 Vibrational temperatures:     41.96    66.94   130.00   154.89   215.39
          (Kelvin)            281.09   335.80   354.95   370.85   422.08
                              450.33   533.61   577.53   616.32   656.93
                              710.65   804.61  1097.93  1180.76  1214.47
                             1271.43  1384.09  1444.56  1469.65  1484.72
                             1528.59  1542.61  1544.52  1589.36  1614.21
                             1631.15  1666.56  1724.12  1768.93  1825.29
                             1872.21  1888.08  1926.54  1990.75  2021.93
                             2028.71  2045.52  2076.10  2115.94  2117.78
                             2126.48  2134.20  2142.53  2144.40  2149.45
                             2157.48  2158.58  2169.00  2177.66  2510.70
                             4156.84  4182.55  4199.75  4330.07  4341.03
                             4343.67  4393.89  4394.17  4398.59  4400.83
                             4413.57  4449.60  4461.10  4472.84  4479.61
                             4485.18  4507.87

 Zero-point correction=                           0.237625 (Hartree/Particle)
 Thermal correction to Energy=                    0.249549
 Thermal correction to Enthalpy=                  0.250493
 Thermal correction to Gibbs Free Energy=         0.199188
 Sum of electronic and zero-point Energies=           -369.607588
 Sum of electronic and thermal Energies=              -369.595664
 Sum of electronic and thermal Enthalpies=            -369.594720
 Sum of electronic and thermal Free Energies=         -369.646025

                     E (Thermal)             CV                S
                      KCal/Mol        Cal/Mol-Kelvin    Cal/Mol-Kelvin
 Total                  156.594             42.594            107.981
 Electronic               0.000              0.000              0.000
 Translational            0.889              2.981             40.434
 Rotational               0.889              2.981             29.963
 Vibrational            154.817             36.632             37.585
 Vibration     1          0.593              1.984              5.885
 Vibration     2          0.595              1.979              4.960
 Vibration     3          0.602              1.956              3.652
 Vibration     4          0.606              1.943              3.311
 Vibration     5          0.618              1.903              2.676
 Vibration     6          0.636              1.846              2.176
 Vibration     7          0.654              1.790              1.853
 Vibration     8          0.661              1.768              1.754
 Vibration     9          0.667              1.750              1.677
 Vibration    10          0.688              1.686              1.454
 Vibration    11          0.701              1.649              1.346
 Vibration    12          0.743              1.532              1.076
 Vibration    13          0.767              1.467              0.958
 Vibration    14          0.790              1.408              0.864
 Vibration    15          0.815              1.346              0.776
 Vibration    16          0.850              1.263              0.673
 Vibration    17          0.915              1.120              0.525

 Optimization completed.
    -- Stationary point found.
 Normal termination of Gaussian 16 at Tue Jun  1 02:00:37 2021.
