 Gaussian 16, Revision A.03,
 Gaussian 16:  ES64L-G16RevA.03 25-Dec-2016

 -----------------------------
 # opt freq b3lyp/6-31g(2df,p)
 -----------------------------

 -------------------
 Title Card Required
 -------------------
 Symbolic Z-matrix:
 Charge =  0 Multiplicity = 1

 SCF Done:  E(RB3LYP) =  -367.414685704     A.U. after   13 cycles
 SCF Done:  E(RB3LYP) =  -367.420484539     A.U. after   12 cycles
 SCF Done:  E(RB3LYP) =  -367.421242080     A.U. after   11 cycles
 SCF Done:  E(RB3LYP) =  -367.421377538     A.U. after    9 cycles
 SCF Done:  E(RB3LYP) =  -367.421472214     A.U. after   10 cycles
 SCF Done:  E(RB3LYP) =  -367.421510046     A.U. after    9 cycles
 SCF Done:  E(RB3LYP) =  -367.421531639     A.U. after    9 cycles
 SCF Done:  E(RB3LYP) =  -367.421540067     A.U. after    9 cycles
 SCF Done:  E(RB3LYP) =  -367.421542437     A.U. after    9 cycles
 SCF Done:  E(RB3LYP) =  -367.421543259     A.U. after    8 cycles
 SCF Done:  E(RB3LYP) =  -367.421544555     A.U. after    9 cycles
 SCF Done:  E(RB3LYP) =  -367.421605345     A.U. after   11 cycles
 SCF Done:  E(RB3LYP) =  -367.422018315     A.U. after   11 cycles
 SCF Done:  E(RB3LYP) =  -367.408187212     A.U. after   14 cycles
 SCF Done:  E(RB3LYP) =  -367.422586982     A.U. after   11 cycles
 SCF Done:  E(RB3LYP) =  -367.422641419     A.U. after    9 cycles
 SCF Done:  E(RB3LYP) =  -367.422641237     A.U. after    9 cycles
 SCF Done:  E(RB3LYP) =  -367.422649124     A.U. after    9 cycles
 SCF Done:  E(RB3LYP) =  -367.422649368     A.U. after    7 cycles
 Optimization completed.
    -- Stationary point found.
 Normal termination of Gaussian 16 at Mon May 31 21:57:44 2021.

 ----------------------------------------------------------------------
 #N Geom=AllCheck Guess=TCheck SCRF=Check GenChk RB3LYP/6-31G(2df,p) Fr
 eq
 ----------------------------------------------------------------------

 Structure from the checkpoint file:  "CCpCtNpC1pCpCCC1.chk"
 -------------------
 Title Card Required
 -------------------
 Charge =  0 Multiplicity = 1

                         Standard orientation:
 ---------------------------------------------------------------------
 Center     Atomic      Atomic             Coordinates (Angstroms)
 Number     Number       Type             X           Y           Z
 ---------------------------------------------------------------------
      1          6           0       -1.714470    1.509403    0.514010
      2          6           0       -1.020717    0.475049   -0.398575
      3          6           0       -1.677969   -0.827681   -0.233351
      4          7           0       -2.199611   -1.849483   -0.088835
      5          6           0        0.510105    0.362109   -0.171518
      6          6           0        1.194874    1.697879   -0.475511
      7          6           0        1.236049   -0.819230   -0.894472
      8          6           0        2.003748   -1.121093    0.420719
      9          6           0        0.980222   -0.243595    1.190476
     10          1           0       -2.795700    1.498116    0.357428
     11          1           0       -1.350202    2.515772    0.299285
     12          1           0       -1.521999    1.286282    1.567236
     13          1           0       -1.180888    0.771738   -1.444703
     14          1           0        0.972684    2.033911   -1.495314
     15          1           0        2.281160    1.596121   -0.392364
     16          1           0        0.889166    2.486766    0.218255
     17          1           0        1.825699   -0.555930   -1.776832
     18          1           0        0.551491   -1.628158   -1.160187
     19          1           0        3.010977   -0.697192    0.428740
     20          1           0        2.071071   -2.169072    0.717947
     21          1           0        1.371557    0.460141    1.929992
     22          1           0        0.201214   -0.849161    1.661684
 ---------------------------------------------------------------------

 SCF Done:  E(RB3LYP) =  -367.422649368     A.U. after    1 cycles

 The electronic state is 1-A.
 Alpha  occ. eigenvalues --  -14.32175 -10.23350 -10.21320 -10.21054 -10.19712
 Alpha  occ. eigenvalues --  -10.18674 -10.18455 -10.18432 -10.18285  -0.89952
 Alpha  occ. eigenvalues --   -0.86289  -0.79658  -0.72610  -0.67757  -0.66275
 Alpha  occ. eigenvalues --   -0.61436  -0.54356  -0.50940  -0.49297  -0.47036
 Alpha  occ. eigenvalues --   -0.43998  -0.42706  -0.41211  -0.39664  -0.39159
 Alpha  occ. eigenvalues --   -0.38165  -0.37671  -0.34889  -0.34070  -0.32704
 Alpha  occ. eigenvalues --   -0.32172  -0.31975  -0.30006  -0.29677
 Alpha virt. eigenvalues --    0.03749   0.04243   0.07228   0.09611   0.10623
 Alpha virt. eigenvalues --    0.11491   0.12372   0.13547   0.14486   0.14813
 Alpha virt. eigenvalues --    0.16009   0.17249   0.17667   0.18904   0.19309

 Mulliken charges:
               1
     1  C   -0.402658
     2  C   -0.195793
     3  C    0.269239
     4  N   -0.341990
     5  C    0.346676
     6  C   -0.460559
     7  C   -0.273683
     8  C   -0.211474
     9  C   -0.258777
    10  H    0.137936
    11  H    0.129090
    12  H    0.139292
    13  H    0.121578
    14  H    0.114158
    15  H    0.122241
    16  H    0.119647
    17  H    0.093788
    18  H    0.125041
    19  H    0.104142
    20  H    0.108299
    21  H    0.094632
    22  H    0.119175
 Sum of Mulliken charges =  -0.00000

 Dipole moment (field-independent basis, Debye):
    X=              1.9957    Y=              3.2881    Z=             -0.2576  Tot=              3.8549
 Quadrupole moment (field-independent basis, Debye-Ang):
   XX=            -60.2600   YY=            -60.7715   ZZ=            -54.8062
   XY=             -7.5433   XZ=              0.2409   YZ=             -0.3249

  Exact polarizability:  90.029   2.782  91.442  -0.956  -0.884  74.261
 Approx polarizability: 121.935  11.672 137.884  -1.780  -3.183 112.972

                      1                      2                      3
                      A                      A                      A
 Frequencies --     63.6122               108.0027               171.4150
 Red. masses --      3.3279                 2.9391                 3.2943
 Frc consts  --      0.0079                 0.0202                 0.0570
 IR Inten    --      1.9410                 2.0259                 4.6713

                      4                      5                      6
                      A                      A                      A
 Frequencies --    196.7176               203.9228               243.9698
 Red. masses --      2.4848                 1.3474                 1.2068
 Frc consts  --      0.0567                 0.0330                 0.0423
 IR Inten    --      1.2202                 1.0567                 0.0498

                      7                      8                      9
                      A                      A                      A
 Frequencies --    289.6154               331.9596               340.7178
 Red. masses --      1.7333                 2.6556                 2.1692
 Frc consts  --      0.0857                 0.1724                 0.1484
 IR Inten    --      0.5368                 0.2651                 0.2609

                     10                     11                     12
                      A                      A                      A
 Frequencies --    383.0612               423.3403               514.2671
 Red. masses --      2.6789                 3.1446                 4.0803
 Frc consts  --      0.2316                 0.3320                 0.6358
 IR Inten    --      0.7142                 0.9637                 0.7864

                     13                     14                     15
                      A                      A                      A
 Frequencies --    580.4075               661.3287               712.3665
 Red. masses --      4.6246                 2.6773                 1.6204
 Frc consts  --      0.9179                 0.6899                 0.4845
 IR Inten    --      0.4295                 1.6979                 1.5730

                     16                     17                     18
                      A                      A                      A
 Frequencies --    797.0644               830.5412               869.9334
 Red. masses --      1.2343                 2.3310                 2.1955
 Frc consts  --      0.4620                 0.9474                 0.9789
 IR Inten    --      0.1779                 0.3102                 0.9062

                     19                     20                     21
                      A                      A                      A
 Frequencies --    912.6331               925.2156               933.9061
 Red. masses --      1.9411                 1.9965                 1.9072
 Frc consts  --      0.9526                 1.0069                 0.9801
 IR Inten    --      0.7118                 0.0341                 0.6863

                     22                     23                     24
                      A                      A                      A
 Frequencies --    945.4067               995.0193              1002.6937
 Red. masses --      2.4788                 1.9145                 1.6326
 Frc consts  --      1.3053                 1.1168                 0.9671
 IR Inten    --      1.5469                 0.6100                 2.1700

                     25                     26                     27
                      A                      A                      A
 Frequencies --   1039.2196              1098.4542              1118.0133
 Red. masses --      1.7467                 1.7050                 1.4720
 Frc consts  --      1.1114                 1.2121                 1.0840
 IR Inten    --      0.1011                 0.7094                 6.2198

                     28                     29                     30
                      A                      A                      A
 Frequencies --   1176.2042              1188.4346              1213.4382
 Red. masses --      2.0658                 2.2288                 1.4068
 Frc consts  --      1.6839                 1.8547                 1.2205
 IR Inten    --      4.0955                 0.4257                 2.7060

                     31                     32                     33
                      A                      A                      A
 Frequencies --   1225.0869              1262.9938              1265.3073
 Red. masses --      2.1492                 1.3860                 1.2363
 Frc consts  --      1.9004                 1.3026                 1.1662
 IR Inten    --      1.5120                 1.1006                 0.5807

                     34                     35                     36
                      A                      A                      A
 Frequencies --   1278.0088              1309.2429              1315.3091
 Red. masses --      1.5131                 1.5893                 1.4322
 Frc consts  --      1.4561                 1.6050                 1.4598
 IR Inten    --      0.2262                 6.6171                 1.5177

                     37                     38                     39
                      A                      A                      A
 Frequencies --   1342.2581              1407.1778              1416.2094
 Red. masses --      1.6242                 1.2266                 1.2137
 Frc consts  --      1.7241                 1.4310                 1.4342
 IR Inten    --      0.7749                 5.6770                 2.3192

                     40                     41                     42
                      A                      A                      A
 Frequencies --   1475.4503              1481.5570              1491.9229
 Red. masses --      1.0829                 1.0750                 1.0508
 Frc consts  --      1.3889                 1.3903                 1.3780
 IR Inten    --      4.8231                 0.7462                 4.9032

                     43                     44                     45
                      A                      A                      A
 Frequencies --   1494.7404              1498.9051              1508.2419
 Red. masses --      1.0538                 1.0493                 1.1305
 Frc consts  --      1.3872                 1.3890                 1.5151
 IR Inten    --      2.3640                 4.6672                 1.3240

                     46                     47                     48
                      A                      A                      A
 Frequencies --   1510.9950              2350.9816              3013.5558
 Red. masses --      1.0480                12.6595                 1.0811
 Frc consts  --      1.4097                41.2256                 5.7845
 IR Inten    --      2.3193                 7.8424                 7.3961

                     49                     50                     51
                      A                      A                      A
 Frequencies --   3028.0449              3053.0021              3054.2833
 Red. masses --      1.0377                 1.0469                 1.0456
 Frc consts  --      5.6058                 5.7492                 5.7467
 IR Inten    --     23.1825                10.1639                48.7217

                     52                     53                     54
                      A                      A                      A
 Frequencies --   3058.3038              3068.6924              3094.9228
 Red. masses --      1.0588                 1.0621                 1.0989
 Frc consts  --      5.8350                 5.8927                 6.2014
 IR Inten    --     13.5780                26.7183                20.3481

                     55                     56                     57
                      A                      A                      A
 Frequencies --   3101.7853              3105.7415              3110.7355
 Red. masses --      1.1064                 1.1011                 1.1072
 Frc consts  --      6.2715                 6.2574                 6.3124
 IR Inten    --     14.3512                24.3133                 9.5292

                     58                     59                     60
                      A                      A                      A
 Frequencies --   3126.2297              3127.0146              3138.0570
 Red. masses --      1.1025                 1.1069                 1.1017
 Frc consts  --      6.3484                 6.3768                 6.3920
 IR Inten    --     15.2233                43.1525                16.4471

 - Thermochemistry -
 -------------------
 Temperature   298.150 Kelvin.  Pressure   1.00000 Atm.
 Atom     1 has atomic number  6 and mass  12.00000

 Molecular mass:   123.10480 amu.
 Principal axes and moments of inertia in atomic units:
                           1         2         3
     Eigenvalues --   837.511641229.999851662.95838
           X            0.99555  -0.09376  -0.00988
           Y            0.09375   0.99559  -0.00233
           Z            0.01006   0.00139   0.99995
 This molecule is an asymmetric top.
 Rotational symmetry number  1.
 Warning -- assumption of classical behavior for rotation
           may cause significant error
 Rotational temperatures (Kelvin)      0.10342     0.07042     0.05208
 Rotational constants (GHZ):           2.15488     1.46727     1.08526
 Zero-point vibrational energy     508327.0 (Joules/Mol)
                                  121.49307 (Kcal/Mol)
 Warning -- explicit consideration of  13 degrees of freedom as
           vibrations may cause significant error
 Vibrational temperatures:     91.52   155.39   246.63   283.03   293.40
          (Kelvin)            351.02   416.69   477.62   490.22   551.14
                              609.09   739.92   835.08   951.50  1024.94
                             1146.80  1194.96  1251.64  1313.08  1331.18
                             1343.68  1360.23  1431.61  1442.65  1495.21
                             1580.43  1608.57  1692.30  1709.89  1745.87
                             1762.63  1817.17  1820.50  1838.77  1883.71
                             1892.44  1931.21  2024.61  2037.61  2122.84
                             2131.63  2146.54  2150.60  2156.59  2170.02
                             2173.98  3382.54  4335.83  4356.68  4392.59
                             4394.43  4400.22  4415.16  4452.90  4462.78
                             4468.47  4475.65  4497.95  4499.08  4514.96

 Zero-point correction=                           0.193612 (Hartree/Particle)
 Thermal correction to Energy=                    0.203357
 Thermal correction to Enthalpy=                  0.204301
 Thermal correction to Gibbs Free Energy=         0.159233
 Sum of electronic and zero-point Energies=           -367.229038
 Sum of electronic and thermal Energies=              -367.219292
 Sum of electronic and thermal Enthalpies=            -367.218348
 Sum of electronic and thermal Free Energies=         -367.263417

                     E (Thermal)             CV                S
                      KCal/Mol        Cal/Mol-Kelvin    Cal/Mol-Kelvin
 Total                  127.609             36.785             94.855
 Electronic               0.000              0.000              0.000
 Translational            0.889              2.981             40.338
 Rotational               0.889              2.981             28.928
 Vibrational            125.831             30.823             25.589
 Vibration     1          0.597              1.972              4.342
 Vibration     2          0.606              1.943              3.304
 Vibration     3          0.626              1.878              2.420
 Vibration     4          0.636              1.844              2.164
 Vibration     5          0.640              1.834              2.097
 Vibration     6          0.659              1.773              1.774
 Vibration     7          0.686              1.693              1.476
 Vibration     8          0.714              1.612              1.251
 Vibration     9          0.720              1.594              1.209
 Vibration    10          0.752              1.506              1.027
 Vibration    11          0.786              1.419              0.881
 Vibration    12          0.869              1.218              0.623
 Vibration    13          0.937              1.074              0.485

 Optimization completed.
    -- Stationary point found.
 Normal termination of Gaussian 16 at Mon May 31 22:33:03 2021.
