 Gaussian 16, Revision A.03,
 Gaussian 16:  ES64L-G16RevA.03 25-Dec-2016

 -----------------------------
 # opt freq b3lyp/6-31g(2df,p)
 -----------------------------

 -------------------
 Title Card Required
 -------------------
 Symbolic Z-matrix:
 Charge =  0 Multiplicity = 1

 SCF Done:  E(RB3LYP) =  -526.212401042     A.U. after   14 cycles
 SCF Done:  E(RB3LYP) =  -526.220568961     A.U. after   14 cycles
 SCF Done:  E(RB3LYP) =  -526.221952012     A.U. after   12 cycles
 SCF Done:  E(RB3LYP) =  -526.222180227     A.U. after   11 cycles
 SCF Done:  E(RB3LYP) =  -526.222205985     A.U. after   10 cycles
 SCF Done:  E(RB3LYP) =  -526.222208708     A.U. after    9 cycles
 SCF Done:  E(RB3LYP) =  -526.222213111     A.U. after    9 cycles
 SCF Done:  E(RB3LYP) =  -526.222218002     A.U. after   10 cycles
 SCF Done:  E(RB3LYP) =  -526.222222791     A.U. after   11 cycles
 SCF Done:  E(RB3LYP) =  -526.222228050     A.U. after   10 cycles
 SCF Done:  E(RB3LYP) =  -526.223116309     A.U. after    8 cycles
 SCF Done:  E(RB3LYP) =  -526.223505962     A.U. after   14 cycles
 SCF Done:  E(RB3LYP) =  -526.220572425     A.U. after   14 cycles
 SCF Done:  E(RB3LYP) =  -526.223656279     A.U. after   13 cycles
 SCF Done:  E(RB3LYP) =  -526.223717486     A.U. after   12 cycles
 SCF Done:  E(RB3LYP) =  -526.223734107     A.U. after   11 cycles
 SCF Done:  E(RB3LYP) =  -526.223737256     A.U. after   10 cycles
 SCF Done:  E(RB3LYP) =  -526.223738303     A.U. after    9 cycles
 SCF Done:  E(RB3LYP) =  -526.223738401     A.U. after    8 cycles
 Optimization completed.
    -- Stationary point found.
 Normal termination of Gaussian 16 at Tue Jun  1 11:19:06 2021.

 ----------------------------------------------------------------------
 #N Geom=AllCheck Guess=TCheck SCRF=Check GenChk RB3LYP/6-31G(2df,p) Fr
 eq
 ----------------------------------------------------------------------

 Structure from the checkpoint file:  "CCpCppNCdNCdNpNNdN.chk"
 -------------------
 Title Card Required
 -------------------
 Charge =  0 Multiplicity = 1

                         Standard orientation:
 ---------------------------------------------------------------------
 Center     Atomic      Atomic             Coordinates (Angstroms)
 Number     Number       Type             X           Y           Z
 ---------------------------------------------------------------------
      1          6           0        2.171357    1.864948   -0.675320
      2          6           0        1.355457    0.766264    0.016122
      3          6           0        1.490455    0.878981    1.544350
      4          7           0       -0.030822    0.921217   -0.402121
      5          6           0       -1.117777    0.358150    0.182190
      6          7           0       -2.254303    0.321126   -0.416423
      7          6           0       -3.309627   -0.230031    0.308348
      8          7           0       -4.506138   -0.350550   -0.103229
      9          7           0        1.885629   -0.518300   -0.472245
     10          7           0        1.326922   -1.639265   -0.003694
     11          7           0        2.029755   -2.662356   -0.178895
     12          1           0        1.812998    2.846159   -0.358217
     13          1           0        2.077881    1.789501   -1.763241
     14          1           0        3.230155    1.782500   -0.414831
     15          1           0        1.038738    1.805947    1.906761
     16          1           0        2.550824    0.878124    1.810903
     17          1           0        1.025337    0.030261    2.048585
     18          1           0       -0.172812    1.155303   -1.376557
     19          1           0       -0.960703   -0.023518    1.194701
     20          1           0       -3.078103   -0.590893    1.322147
     21          1           0       -4.564386    0.026403   -1.054448
     22          1           0        2.873096   -0.588535   -0.712288
     23          1           0        1.470482   -3.444226    0.178591
 ---------------------------------------------------------------------

 SCF Done:  E(RB3LYP) =  -526.223738401     A.U. after    1 cycles

 The electronic state is 1-A.
 Alpha  occ. eigenvalues --  -14.42138 -14.38383 -14.36918 -14.35343 -14.30846
 Alpha  occ. eigenvalues --  -14.28359 -10.29517 -10.26611 -10.22760 -10.21171
 Alpha  occ. eigenvalues --  -10.20395  -1.07689  -0.98584  -0.93218  -0.89610
 Alpha  occ. eigenvalues --   -0.84627  -0.79385  -0.73038  -0.67131  -0.65545
 Alpha  occ. eigenvalues --   -0.61324  -0.58240  -0.54909  -0.52269  -0.50860
 Alpha  occ. eigenvalues --   -0.49643  -0.46555  -0.45355  -0.42852  -0.42164
 Alpha  occ. eigenvalues --   -0.41624  -0.40742  -0.40662  -0.40383  -0.38974
 Alpha  occ. eigenvalues --   -0.37634  -0.32038  -0.26669  -0.26304  -0.25307
 Alpha  occ. eigenvalues --   -0.25006  -0.22989
 Alpha virt. eigenvalues --   -0.02968  -0.01165   0.05663   0.07685   0.08475
 Alpha virt. eigenvalues --    0.09623   0.10385   0.11238   0.12640   0.12950
 Alpha virt. eigenvalues --    0.14023   0.15890   0.16549   0.17220   0.18300

 Mulliken charges:
               1
     1  C   -0.437171
     2  C    0.234418
     3  C   -0.406486
     4  N   -0.276561
     5  C    0.155453
     6  N   -0.303322
     7  C    0.130112
     8  N   -0.464151
     9  N   -0.186952
    10  N   -0.050761
    11  N   -0.351183
    12  H    0.144630
    13  H    0.134423
    14  H    0.131601
    15  H    0.135107
    16  H    0.125693
    17  H    0.146060
    18  H    0.251730
    19  H    0.113234
    20  H    0.081040
    21  H    0.214058
    22  H    0.230785
    23  H    0.248243
 Sum of Mulliken charges =  -0.00000

 Dipole moment (field-independent basis, Debye):
    X=              5.9021    Y=              2.4175    Z=              0.5709  Tot=              6.4036
 Quadrupole moment (field-independent basis, Debye-Ang):
   XX=            -86.6297   YY=            -64.3685   ZZ=            -62.3107
   XY=              3.2131   XZ=              1.4579   YZ=             -2.8148

  Exact polarizability: 143.936   7.865  99.047   2.617  -5.884  78.067
 Approx polarizability: 201.613  13.100 148.514   6.553 -11.311 118.916

                      1                      2                      3
                      A                      A                      A
 Frequencies --     37.7728                73.0742                92.5081
 Red. masses --      6.0407                 1.9531                 3.4113
 Frc consts  --      0.0051                 0.0061                 0.0172
 IR Inten    --      0.2682                 0.3369                 0.5727

                      4                      5                      6
                      A                      A                      A
 Frequencies --    107.8028               122.4481               156.0828
 Red. masses --      5.0386                 3.8134                 5.0082
 Frc consts  --      0.0345                 0.0337                 0.0719
 IR Inten    --      4.3469                 3.3387                 0.9295

                      7                      8                      9
                      A                      A                      A
 Frequencies --    220.1173               235.8526               256.3120
 Red. masses --      3.0419                 1.1559                 1.5412
 Frc consts  --      0.0868                 0.0379                 0.0597
 IR Inten    --      4.1403                 0.5576                 1.1849

                     10                     11                     12
                      A                      A                      A
 Frequencies --    283.1410               293.5257               319.7892
 Red. masses --      1.9968                 1.8047                 3.0129
 Frc consts  --      0.0943                 0.0916                 0.1815
 IR Inten    --      1.3683                 0.2000                 0.1718

                     13                     14                     15
                      A                      A                      A
 Frequencies --    350.5044               416.0034               433.2345
 Red. masses --      2.4442                 4.4782                 3.6443
 Frc consts  --      0.1769                 0.4566                 0.4030
 IR Inten    --      0.4946                18.0264                 5.6082

                     16                     17                     18
                      A                      A                      A
 Frequencies --    534.8389               544.3376               595.4295
 Red. masses --      3.4688                 3.2156                 1.3864
 Frc consts  --      0.5846                 0.5614                 0.2896
 IR Inten    --      7.5129                18.7275                82.6898

                     19                     20                     21
                      A                      A                      A
 Frequencies --    624.6767               641.3101               677.6219
 Red. masses --      2.9848                 2.1121                 2.1073
 Frc consts  --      0.6862                 0.5118                 0.5701
 IR Inten    --      8.6423                52.6336                97.9235

                     22                     23                     24
                      A                      A                      A
 Frequencies --    852.6880               888.3158               935.8743
 Red. masses --      3.3250                 1.9705                 1.2563
 Frc consts  --      1.4244                 0.9161                 0.6483
 IR Inten    --     10.0553                30.9652                23.8977

                     25                     26                     27
                      A                      A                      A
 Frequencies --    942.2671               951.1347               989.3592
 Red. masses --      1.4346                 1.8226                 2.0348
 Frc consts  --      0.7505                 0.9715                 1.1735
 IR Inten    --      8.5209                10.0491                24.2268

                     28                     29                     30
                      A                      A                      A
 Frequencies --   1009.7539              1029.6211              1103.9042
 Red. masses --      1.4874                 1.3500                 1.1406
 Frc consts  --      0.8935                 0.8432                 0.8190
 IR Inten    --      0.9310                 6.1569                35.0355

                     31                     32                     33
                      A                      A                      A
 Frequencies --   1107.7495              1151.9952              1206.6634
 Red. masses --      2.7603                 3.4602                 2.2927
 Frc consts  --      1.9957                 2.7055                 1.9668
 IR Inten    --     38.6764               293.7407                76.6524

                     34                     35                     36
                      A                      A                      A
 Frequencies --   1228.5705              1246.9643              1279.2506
 Red. masses --      2.8648                 2.1039                 1.9380
 Frc consts  --      2.5476                 1.9275                 1.8686
 IR Inten    --     19.1790               303.8256                36.7885

                     37                     38                     39
                      A                      A                      A
 Frequencies --   1330.5541              1375.6614              1401.2394
 Red. masses --      2.1570                 1.3924                 1.2692
 Frc consts  --      2.2499                 1.5525                 1.4683
 IR Inten    --    203.6866                11.3112                 9.2380

                     40                     41                     42
                      A                      A                      A
 Frequencies --   1419.2198              1428.4988              1441.1827
 Red. masses --      1.2719                 1.2272                 1.5484
 Frc consts  --      1.5094                 1.4754                 1.8948
 IR Inten    --     40.1576                35.2584                35.6500

                     43                     44                     45
                      A                      A                      A
 Frequencies --   1472.8504              1484.8856              1490.2328
 Red. masses --      1.2872                 1.0937                 1.3115
 Frc consts  --      1.6452                 1.4208                 1.7160
 IR Inten    --     10.9329                 1.9230                14.2452

                     46                     47                     48
                      A                      A                      A
 Frequencies --   1498.0905              1501.5068              1516.0305
 Red. masses --      1.2515                 1.1882                 1.1167
 Frc consts  --      1.6549                 1.5783                 1.5122
 IR Inten    --      4.3964                 1.4160                 0.4096

                     49                     50                     51
                      A                      A                      A
 Frequencies --   1586.9946              1683.3073              1732.6808
 Red. masses --      6.3904                 6.1276                 6.3090
 Frc consts  --      9.4826                10.2298                11.1597
 IR Inten    --    113.1847               922.0109                41.0104

                     52                     53                     54
                      A                      A                      A
 Frequencies --   3008.4327              3045.5445              3053.2141
 Red. masses --      1.0859                 1.0361                 1.0360
 Frc consts  --      5.7906                 5.6620                 5.6903
 IR Inten    --     57.0171                10.2080                 6.3270

                     55                     56                     57
                      A                      A                      A
 Frequencies --   3089.2710              3117.2616              3126.0964
 Red. masses --      1.0864                 1.1019                 1.1019
 Frc consts  --      6.1090                 6.3085                 6.3448
 IR Inten    --     25.6966                15.6317                19.6532

                     58                     59                     60
                      A                      A                      A
 Frequencies --   3139.8915              3142.6744              3389.7451
 Red. masses --      1.1017                 1.1018                 1.0747
 Frc consts  --      6.3993                 6.4116                 7.2758
 IR Inten    --     12.1462                17.4254                 0.1517

                     61                     62                     63
                      A                      A                      A
 Frequencies --   3426.9929              3472.8171              3579.0963
 Red. masses --      1.0722                 1.0745                 1.0748
 Frc consts  --      7.4188                 7.6351                 8.1119
 IR Inten    --      1.9664                 1.9913                22.6608

 - Thermochemistry -
 -------------------
 Temperature   298.150 Kelvin.  Pressure   1.00000 Atm.
 Atom     1 has atomic number  6 and mass  12.00000

 Molecular mass:   156.11234 amu.
 Principal axes and moments of inertia in atomic units:
                           1         2         3
     Eigenvalues --  1119.350153119.804383772.22223
           X            0.99970   0.02454   0.00140
           Y           -0.02452   0.99962  -0.01259
           Z           -0.00171   0.01255   0.99992
 This molecule is an asymmetric top.
 Rotational symmetry number  1.
 Warning -- assumption of classical behavior for rotation
           may cause significant error
 Rotational temperatures (Kelvin)      0.07738     0.02776     0.02296
 Rotational constants (GHZ):           1.61231     0.57848     0.47843
 Zero-point vibrational energy     501800.4 (Joules/Mol)
                                  119.93316 (Kcal/Mol)
 Warning -- explicit consideration of  18 degrees of freedom as
           vibrations may cause significant error
 Vibrational temperatures:     54.35   105.14   133.10   155.10   176.18
          (Kelvin)            224.57   316.70   339.34   368.78   407.38
                              422.32   460.11   504.30   598.54   623.33
                              769.51   783.18   856.69   898.77   922.70
                              974.95  1226.83  1278.09  1346.51  1355.71
                             1368.47  1423.47  1452.81  1481.40  1588.27
                             1593.80  1657.46  1736.12  1767.64  1794.10
                             1840.56  1914.37  1979.27  2016.07  2041.94
                             2055.29  2073.54  2119.10  2136.42  2144.11
                             2155.42  2160.33  2181.23  2283.33  2421.90
                             2492.94  4328.46  4381.86  4392.89  4444.77
                             4485.04  4497.76  4517.60  4521.61  4877.09
                             4930.68  4996.61  5149.52

 Zero-point correction=                           0.191126 (Hartree/Particle)
 Thermal correction to Energy=                    0.203652
 Thermal correction to Enthalpy=                  0.204596
 Thermal correction to Gibbs Free Energy=         0.151923
 Sum of electronic and zero-point Energies=           -526.032613
 Sum of electronic and thermal Energies=              -526.020087
 Sum of electronic and thermal Enthalpies=            -526.019143
 Sum of electronic and thermal Free Energies=         -526.071815

                     E (Thermal)             CV                S
                      KCal/Mol        Cal/Mol-Kelvin    Cal/Mol-Kelvin
 Total                  127.793             44.837            110.858
 Electronic               0.000              0.000              0.000
 Translational            0.889              2.981             41.046
 Rotational               0.889              2.981             30.955
 Vibrational            126.016             38.875             38.858
 Vibration     1          0.594              1.982              5.373
 Vibration     2          0.599              1.967              4.069
 Vibration     3          0.602              1.955              3.606
 Vibration     4          0.606              1.943              3.308
 Vibration     5          0.610              1.930              3.061
 Vibration     6          0.620              1.896              2.597
 Vibration     7          0.647              1.810              1.958
 Vibration     8          0.655              1.786              1.834
 Vibration     9          0.666              1.752              1.687
 Vibration    10          0.682              1.705              1.515
 Vibration    11          0.688              1.686              1.454
 Vibration    12          0.706              1.636              1.311
 Vibration    13          0.727              1.574              1.164
 Vibration    14          0.779              1.435              0.906
 Vibration    15          0.794              1.398              0.848
 Vibration    16          0.890              1.173              0.576
 Vibration    17          0.899              1.152              0.556
 Vibration    18          0.953              1.042              0.458

 Optimization completed.
    -- Stationary point found.
 Normal termination of Gaussian 16 at Tue Jun  1 12:06:05 2021.
