 Gaussian 16, Revision A.03,
 Gaussian 16:  ES64L-G16RevA.03 25-Dec-2016

 -----------------------------
 # opt freq b3lyp/6-31g(2df,p)
 -----------------------------

 -------------------
 Title Card Required
 -------------------
 Symbolic Z-matrix:
 Charge =  0 Multiplicity = 1

 SCF Done:  E(RB3LYP) =  -394.581225367     A.U. after   13 cycles
 SCF Done:  E(RB3LYP) =  -394.590911776     A.U. after   13 cycles
 SCF Done:  E(RB3LYP) =  -394.593021551     A.U. after   13 cycles
 SCF Done:  E(RB3LYP) =  -394.593526848     A.U. after   13 cycles
 SCF Done:  E(RB3LYP) =  -394.593729464     A.U. after   13 cycles
 SCF Done:  E(RB3LYP) =  -394.593930776     A.U. after   13 cycles
 SCF Done:  E(RB3LYP) =  -394.594124318     A.U. after   14 cycles
 SCF Done:  E(RB3LYP) =  -394.595044725     A.U. after   14 cycles
 SCF Done:  E(RB3LYP) =  -394.593471505     A.U. after   16 cycles
 SCF Done:  E(RB3LYP) =  -394.591748046     A.U. after   14 cycles
 SCF Done:  E(RB3LYP) =  -394.596978739     A.U. after   13 cycles
 SCF Done:  E(RB3LYP) =  -394.597750584     A.U. after   14 cycles
 SCF Done:  E(RB3LYP) =  -394.598201349     A.U. after   14 cycles
 SCF Done:  E(RB3LYP) =  -394.595320777     A.U. after   13 cycles
 SCF Done:  E(RB3LYP) =  -394.598952757     A.U. after   12 cycles
 SCF Done:  E(RB3LYP) =  -394.599002743     A.U. after   10 cycles
 SCF Done:  E(RB3LYP) =  -394.599010601     A.U. after   10 cycles
 SCF Done:  E(RB3LYP) =  -394.599011468     A.U. after    9 cycles
 SCF Done:  E(RB3LYP) =  -394.599011575     A.U. after    7 cycles
 Optimization completed.
    -- Stationary point found.
 Normal termination of Gaussian 16 at Tue Jun  1 00:17:42 2021.

 ----------------------------------------------------------------------
 #N Geom=AllCheck Guess=TCheck SCRF=Check GenChk RB3LYP/6-31G(2df,p) Fr
 eq
 ----------------------------------------------------------------------

 Structure from the checkpoint file:  "CCpCNdNpNNN.chk"
 -------------------
 Title Card Required
 -------------------
 Charge =  0 Multiplicity = 1

                         Standard orientation:
 ---------------------------------------------------------------------
 Center     Atomic      Atomic             Coordinates (Angstroms)
 Number     Number       Type             X           Y           Z
 ---------------------------------------------------------------------
      1          6           0        0.633985    2.158359    0.117404
      2          6           0        0.083674    0.780940   -0.252780
      3          6           0        0.797722   -0.350443    0.512231
      4          7           0        2.222429   -0.376312    0.161658
      5          7           0        2.571043   -1.457935   -0.336804
      6          7           0       -1.351573    0.743943    0.050145
      7          7           0       -2.088525   -0.301180   -0.596462
      8          7           0       -2.487572   -1.350818    0.279123
      9          1           0        1.713928    2.192026   -0.036346
     10          1           0        0.425829    2.379992    1.169306
     11          1           0        0.171536    2.939767   -0.495070
     12          1           0        0.263902    0.609847   -1.331481
     13          1           0        0.342538   -1.325045    0.299362
     14          1           0        0.732572   -0.138571    1.586241
     15          1           0        3.579916   -1.370932   -0.554634
     16          1           0       -1.765746    1.619539   -0.255792
     17          1           0       -1.505643   -0.731761   -1.310582
     18          1           0       -3.324819   -1.026549    0.754770
     19          1           0       -1.786912   -1.485322    1.009480
 ---------------------------------------------------------------------

 SCF Done:  E(RB3LYP) =  -394.599011575     A.U. after    1 cycles

 The electronic state is 1-A.
 Alpha  occ. eigenvalues --  -14.38794 -14.37812 -14.36040 -14.34063 -14.32822
 Alpha  occ. eigenvalues --  -10.22621 -10.21146 -10.18220  -1.03321  -0.99176
 Alpha  occ. eigenvalues --   -0.87669  -0.79511  -0.73683  -0.68950  -0.63835
 Alpha  occ. eigenvalues --   -0.57614  -0.51383  -0.50319  -0.48901  -0.48336
 Alpha  occ. eigenvalues --   -0.45329  -0.43306  -0.42749  -0.41164  -0.38975
 Alpha  occ. eigenvalues --   -0.37460  -0.34772  -0.34107  -0.26706  -0.25222
 Alpha  occ. eigenvalues --   -0.23482  -0.22369
 Alpha virt. eigenvalues --   -0.04687   0.08201   0.09369   0.10162   0.10663
 Alpha virt. eigenvalues --    0.12278   0.14115   0.14460   0.15648   0.16401
 Alpha virt. eigenvalues --    0.17579   0.19303   0.20049   0.21605   0.22336

 Mulliken charges:
               1
     1  C   -0.412681
     2  C    0.048694
     3  C   -0.106614
     4  N   -0.114938
     5  N   -0.271356
     6  N   -0.277542
     7  N   -0.271379
     8  N   -0.433146
     9  H    0.142045
    10  H    0.127342
    11  H    0.113111
    12  H    0.069705
    13  H    0.108334
    14  H    0.120059
    15  H    0.244742
    16  H    0.229019
    17  H    0.230310
    18  H    0.239113
    19  H    0.215181
 Sum of Mulliken charges =  -0.00000

 Dipole moment (field-independent basis, Debye):
    X=              1.1221    Y=              1.4606    Z=              0.3595  Tot=              1.8766
 Quadrupole moment (field-independent basis, Debye-Ang):
   XX=            -49.4852   YY=            -51.5809   ZZ=            -47.3591
   XY=             -3.4219   XZ=             -3.7151   YZ=             -2.2426

  Exact polarizability:  83.817  -2.451  74.261  -5.835   1.332  57.212
 Approx polarizability: 106.918  -5.760 106.359  -8.725   5.546  89.981

                      1                      2                      3
                      A                      A                      A
 Frequencies --     70.8923                81.1654                96.2280
 Red. masses --      5.8595                 3.6976                 3.0702
 Frc consts  --      0.0174                 0.0144                 0.0168
 IR Inten    --      0.0803                 0.7559                 0.1734

                      4                      5                      6
                      A                      A                      A
 Frequencies --    113.5665               211.5110               251.2932
 Red. masses --      2.8888                 1.2475                 1.4691
 Frc consts  --      0.0220                 0.0329                 0.0547
 IR Inten    --      1.2156                 3.4568                 9.0047

                      7                      8                      9
                      A                      A                      A
 Frequencies --    255.7687               311.7553               368.5882
 Red. masses --      3.0594                 1.7779                 2.4005
 Frc consts  --      0.1179                 0.1018                 0.1922
 IR Inten    --      1.1040                14.5063                 8.1109

                     10                     11                     12
                      A                      A                      A
 Frequencies --    435.1319               483.0215               530.1310
 Red. masses --      3.6416                 2.8737                 2.6386
 Frc consts  --      0.4062                 0.3950                 0.4369
 IR Inten    --      2.2949                13.8877                16.8236

                     13                     14                     15
                      A                      A                      A
 Frequencies --    561.5335               742.3883               834.0847
 Red. masses --      2.2953                 2.3142                 1.6850
 Frc consts  --      0.4264                 0.7515                 0.6907
 IR Inten    --     28.1629                39.3728                 8.2594

                     16                     17                     18
                      A                      A                      A
 Frequencies --    851.5291               904.6222               950.8299
 Red. masses --      2.4795                 1.7454                 1.2782
 Frc consts  --      1.0593                 0.8416                 0.6808
 IR Inten    --     71.9170                15.5681                19.0420

                     19                     20                     21
                      A                      A                      A
 Frequencies --    964.3315               970.0506              1003.2960
 Red. masses --      1.4937                 1.7138                 2.3094
 Frc consts  --      0.8184                 0.9501                 1.3696
 IR Inten    --     77.4779                26.5754                26.6230

                     22                     23                     24
                      A                      A                      A
 Frequencies --   1074.5246              1131.8741              1165.3014
 Red. masses --      2.4321                 2.5893                 1.9858
 Frc consts  --      1.6545                 1.9544                 1.5888
 IR Inten    --     11.8786                36.7116                13.1316

                     25                     26                     27
                      A                      A                      A
 Frequencies --   1192.6784              1205.2330              1245.1243
 Red. masses --      1.9211                 2.0223                 1.2524
 Frc consts  --      1.6101                 1.7308                 1.1439
 IR Inten    --      3.8069                13.8152                 7.0092

                     28                     29                     30
                      A                      A                      A
 Frequencies --   1321.3874              1330.8872              1363.4583
 Red. masses --      1.2153                 1.2655                 1.2970
 Frc consts  --      1.2503                 1.3207                 1.4206
 IR Inten    --      1.1221                 7.8927                 4.4197

                     31                     32                     33
                      A                      A                      A
 Frequencies --   1378.2857              1407.1416              1474.8648
 Red. masses --      1.3518                 1.2862                 1.0990
 Frc consts  --      1.5130                 1.5004                 1.4085
 IR Inten    --     20.8848                13.9796                 0.4512

                     34                     35                     36
                      A                      A                      A
 Frequencies --   1481.4451              1494.1572              1498.5730
 Red. masses --      1.1101                 1.2075                 1.0767
 Frc consts  --      1.4355                 1.5883                 1.4246
 IR Inten    --      2.7549                24.6894                 6.5288

                     37                     38                     39
                      A                      A                      A
 Frequencies --   1507.8194              1520.4402              1656.0894
 Red. masses --      1.1505                 1.0950                 9.7107
 Frc consts  --      1.5411                 1.4915                15.6916
 IR Inten    --     10.6039                 0.7361                 3.8578

                     40                     41                     42
                      A                      A                      A
 Frequencies --   1695.2093              2913.0849              3019.7820
 Red. masses --      1.0628                 1.0808                 1.0550
 Frc consts  --      1.7994                 5.4038                 5.6684
 IR Inten    --     13.4482                50.1767                19.5615

                     43                     44                     45
                      A                      A                      A
 Frequencies --   3037.7136              3081.6593              3102.5280
 Red. masses --      1.0375                 1.1070                 1.1013
 Frc consts  --      5.6406                 6.1939                 6.2459
 IR Inten    --     20.1588                14.5366                26.1553

                     46                     47                     48
                      A                      A                      A
 Frequencies --   3139.1386              3242.1445              3425.1415
 Red. masses --      1.0992                 1.0737                 1.0528
 Frc consts  --      6.3821                 6.6499                 7.2770
 IR Inten    --     10.3220                29.4233                 9.4815

                     49                     50                     51
                      A                      A                      A
 Frequencies --   3469.3958              3493.7783              3531.3742
 Red. masses --      1.0745                 1.0753                 1.0873
 Frc consts  --      7.6199                 7.7334                 7.9890
 IR Inten    --      2.5773                 2.2137                 0.5064

 - Thermochemistry -
 -------------------
 Temperature   298.150 Kelvin.  Pressure   1.00000 Atm.
 Atom     1 has atomic number  6 and mass  12.00000

 Molecular mass:   117.10145 amu.
 Principal axes and moments of inertia in atomic units:
                           1         2         3
     Eigenvalues --   651.628781450.320041945.84608
           X            0.99980   0.01876  -0.00727
           Y           -0.01882   0.99979  -0.00826
           Z            0.00711   0.00839   0.99994
 This molecule is an asymmetric top.
 Rotational symmetry number  1.
 Warning -- assumption of classical behavior for rotation
           may cause significant error
 Rotational temperatures (Kelvin)      0.13292     0.05972     0.04451
 Rotational constants (GHZ):           2.76958     1.24437     0.92748
 Zero-point vibrational energy     434196.3 (Joules/Mol)
                                  103.77541 (Kcal/Mol)
 Warning -- explicit consideration of  13 degrees of freedom as
           vibrations may cause significant error
 Vibrational temperatures:    102.00   116.78   138.45   163.40   304.32
          (Kelvin)            361.55   367.99   448.55   530.32   626.06
                              694.96   762.74   807.92  1068.13  1200.06
                             1225.16  1301.55  1368.03  1387.46  1395.69
                             1443.52  1546.00  1628.51  1676.61  1716.00
                             1734.06  1791.46  1901.18  1914.85  1961.71
                             1983.05  2024.56  2122.00  2131.47  2149.76
                             2156.11  2169.42  2187.57  2382.74  2439.03
                             4191.28  4344.79  4370.59  4433.82  4463.85
                             4516.52  4664.72  4928.01  4991.69  5026.77
                             5080.86

 Zero-point correction=                           0.165377 (Hartree/Particle)
 Thermal correction to Energy=                    0.175018
 Thermal correction to Enthalpy=                  0.175963
 Thermal correction to Gibbs Free Energy=         0.130305
 Sum of electronic and zero-point Energies=           -394.433635
 Sum of electronic and thermal Energies=              -394.423993
 Sum of electronic and thermal Enthalpies=            -394.423049
 Sum of electronic and thermal Free Energies=         -394.468706

                     E (Thermal)             CV                S
                      KCal/Mol        Cal/Mol-Kelvin    Cal/Mol-Kelvin
 Total                  109.826             33.852             96.094
 Electronic               0.000              0.000              0.000
 Translational            0.889              2.981             40.189
 Rotational               0.889              2.981             28.999
 Vibrational            108.048             27.890             26.906
 Vibration     1          0.598              1.968              4.128
 Vibration     2          0.600              1.962              3.862
 Vibration     3          0.603              1.952              3.529
 Vibration     4          0.607              1.938              3.207
 Vibration     5          0.643              1.823              2.031
 Vibration     6          0.663              1.761              1.721
 Vibration     7          0.666              1.753              1.690
 Vibration     8          0.700              1.651              1.353
 Vibration     9          0.741              1.537              1.086
 Vibration    10          0.796              1.394              0.842
 Vibration    11          0.839              1.288              0.702
 Vibration    12          0.885              1.183              0.587
 Vibration    13          0.917              1.115              0.521

 Optimization completed.
    -- Stationary point found.
 Normal termination of Gaussian 16 at Tue Jun  1 00:39:28 2021.
