 Gaussian 16, Revision A.03,
 Gaussian 16:  ES64L-G16RevA.03 25-Dec-2016

 -----------------------------
 # opt freq b3lyp/6-31g(2df,p)
 -----------------------------

 -------------------
 Title Card Required
 -------------------
 Symbolic Z-matrix:
 Charge =  0 Multiplicity = 1

 SCF Done:  E(RB3LYP) =  -416.716400972     A.U. after   14 cycles
 SCF Done:  E(RB3LYP) =  -416.724395927     A.U. after   12 cycles
 SCF Done:  E(RB3LYP) =  -416.725030458     A.U. after   11 cycles
 SCF Done:  E(RB3LYP) =  -416.725306097     A.U. after   12 cycles
 SCF Done:  E(RB3LYP) =  -416.725497727     A.U. after   12 cycles
 SCF Done:  E(RB3LYP) =  -416.725769740     A.U. after   12 cycles
 SCF Done:  E(RB3LYP) =  -416.725574806     A.U. after   12 cycles
 SCF Done:  E(RB3LYP) =  -416.727126941     A.U. after   12 cycles
 SCF Done:  E(RB3LYP) =  -416.723096634     A.U. after   12 cycles
 SCF Done:  E(RB3LYP) =  -416.727700174     A.U. after   12 cycles
 SCF Done:  E(RB3LYP) =  -416.727637308     A.U. after   12 cycles
 SCF Done:  E(RB3LYP) =  -416.728073293     A.U. after   12 cycles
 SCF Done:  E(RB3LYP) =  -416.728710658     A.U. after   11 cycles
 SCF Done:  E(RB3LYP) =  -416.728873105     A.U. after   10 cycles
 SCF Done:  E(RB3LYP) =  -416.728892724     A.U. after    9 cycles
 SCF Done:  E(RB3LYP) =  -416.728897662     A.U. after    8 cycles
 SCF Done:  E(RB3LYP) =  -416.728898608     A.U. after    7 cycles
 SCF Done:  E(RB3LYP) =  -416.728898802     A.U. after    7 cycles
 SCF Done:  E(RB3LYP) =  -416.728898829     A.U. after    6 cycles
 Optimization completed.
    -- Stationary point found.
 Normal termination of Gaussian 16 at Mon May 31 17:14:46 2021.

 ----------------------------------------------------------------------
 #N Geom=AllCheck Guess=TCheck SCRF=Check GenChk RB3LYP/6-31G(2df,p) Fr
 eq
 ----------------------------------------------------------------------

 Structure from the checkpoint file:  "CCpCppCtNpNNCN.chk"
 -------------------
 Title Card Required
 -------------------
 Charge =  0 Multiplicity = 1

                         Standard orientation:
 ---------------------------------------------------------------------
 Center     Atomic      Atomic             Coordinates (Angstroms)
 Number     Number       Type             X           Y           Z
 ---------------------------------------------------------------------
      1          6           0        0.786394   -0.695578    1.492422
      2          6           0        1.132964   -0.321659    0.035258
      3          6           0        2.217066   -1.259438   -0.527728
      4          6           0        1.656102    1.063503    0.024400
      5          7           0        2.097428    2.130955    0.039749
      6          7           0       -0.001087   -0.362810   -0.903046
      7          7           0       -1.131569    0.380418   -0.472743
      8          6           0       -2.266047   -0.431958   -0.042289
      9          7           0       -3.392826    0.465471    0.138404
     10          1           0        1.662186   -0.594463    2.139797
     11          1           0        0.443870   -1.734677    1.533404
     12          1           0       -0.000192   -0.040984    1.871543
     13          1           0        3.125832   -1.204287    0.074977
     14          1           0        2.456633   -0.991486   -1.558731
     15          1           0        1.855321   -2.293193   -0.505763
     16          1           0       -0.242223   -1.333071   -1.100177
     17          1           0       -1.442993    0.955397   -1.249994
     18          1           0       -1.960090   -0.989161    0.858069
     19          1           0       -2.556130   -1.181498   -0.803270
     20          1           0       -3.253920    1.038636    0.964478
     21          1           0       -4.250800   -0.058669    0.266746
 ---------------------------------------------------------------------

 SCF Done:  E(RB3LYP) =  -416.728898829     A.U. after    1 cycles

 The electronic state is 1-A.
 Alpha  occ. eigenvalues --  -14.35422 -14.34536 -14.32242 -14.31476 -10.26153
 Alpha  occ. eigenvalues --  -10.24242 -10.20425 -10.19596 -10.19046  -0.98622
 Alpha  occ. eigenvalues --   -0.90207  -0.88507  -0.83189  -0.74583  -0.70676
 Alpha  occ. eigenvalues --   -0.64640  -0.63888  -0.52754  -0.51752  -0.49989
 Alpha  occ. eigenvalues --   -0.47945  -0.44745  -0.44182  -0.42310  -0.40686
 Alpha  occ. eigenvalues --   -0.40363  -0.39770  -0.38820  -0.36645  -0.34303
 Alpha  occ. eigenvalues --   -0.31812  -0.31198  -0.26907  -0.25601  -0.22866
 Alpha virt. eigenvalues --    0.04311   0.05134   0.06631   0.07163   0.10325
 Alpha virt. eigenvalues --    0.12083   0.12701   0.13338   0.14253   0.14906
 Alpha virt. eigenvalues --    0.16798   0.17704   0.17764   0.18888   0.19905

 Mulliken charges:
               1
     1  C   -0.409024
     2  C    0.130180
     3  C   -0.421276
     4  C    0.318817
     5  N   -0.348719
     6  N   -0.312126
     7  N   -0.248067
     8  C   -0.087353
     9  N   -0.509808
    10  H    0.130309
    11  H    0.109566
    12  H    0.145496
    13  H    0.139139
    14  H    0.146275
    15  H    0.116354
    16  H    0.212945
    17  H    0.240499
    18  H    0.089443
    19  H    0.084753
    20  H    0.238241
    21  H    0.234357
 Sum of Mulliken charges =  -0.00000

 Dipole moment (field-independent basis, Debye):
    X=             -2.6274    Y=             -4.8722    Z=              0.9867  Tot=              5.6227
 Quadrupole moment (field-independent basis, Debye-Ang):
   XX=            -52.5939   YY=            -61.3975   ZZ=            -53.7998
   XY=             -5.8720   XZ=             -2.3884   YZ=              1.1511

  Exact polarizability:  93.168   2.166  81.943  -0.287   1.170  66.958
 Approx polarizability: 115.830   8.289 130.003   1.204   2.168  97.928

                      1                      2                      3
                      A                      A                      A
 Frequencies --     57.7789                85.0924               123.1310
 Red. masses --      4.4599                 2.8206                 2.3327
 Frc consts  --      0.0088                 0.0120                 0.0208
 IR Inten    --      2.4666                 1.8888                 1.1061

                      4                      5                      6
                      A                      A                      A
 Frequencies --    179.7524               192.4111               232.9847
 Red. masses --      4.0930                 3.2175                 1.0642
 Frc consts  --      0.0779                 0.0702                 0.0340
 IR Inten    --      1.5417                 3.8751                 0.3869

                      7                      8                      9
                      A                      A                      A
 Frequencies --    249.4695               263.4640               291.5800
 Red. masses --      1.6626                 2.2150                 1.1001
 Frc consts  --      0.0610                 0.0906                 0.0551
 IR Inten    --     25.6078                 7.1464                 0.5316

                     10                     11                     12
                      A                      A                      A
 Frequencies --    321.7001               333.9136               389.4211
 Red. masses --      2.1455                 2.6926                 3.3957
 Frc consts  --      0.1308                 0.1769                 0.3034
 IR Inten    --     10.7325                 3.7852                 9.8713

                     13                     14                     15
                      A                      A                      A
 Frequencies --    400.1635               546.8764               591.4123
 Red. masses --      2.4899                 4.8664                 3.5081
 Frc consts  --      0.2349                 0.8575                 0.7229
 IR Inten    --      2.1150                 2.3225                11.6374

                     16                     17                     18
                      A                      A                      A
 Frequencies --    624.5677               675.0957               714.4050
 Red. masses --      4.2492                 2.8775                 3.0872
 Frc consts  --      0.9766                 0.7727                 0.9283
 IR Inten    --     14.7468                30.7851                 6.3034

                     19                     20                     21
                      A                      A                      A
 Frequencies --    829.5230               875.0433               928.2933
 Red. masses --      1.3263                 1.5796                 1.6923
 Frc consts  --      0.5377                 0.7126                 0.8592
 IR Inten    --    139.7463                90.1616                 5.4435

                     22                     23                     24
                      A                      A                      A
 Frequencies --    937.8723               964.3607               983.4606
 Red. masses --      1.8322                 1.4871                 1.4336
 Frc consts  --      0.9495                 0.8149                 0.8170
 IR Inten    --      2.4317                14.9599                16.6578

                     25                     26                     27
                      A                      A                      A
 Frequencies --   1028.5912              1089.9656              1146.3312
 Red. masses --      1.3202                 3.1103                 3.5622
 Frc consts  --      0.8230                 2.1771                 2.7580
 IR Inten    --      0.7751                 9.7688                31.0223

                     28                     29                     30
                      A                      A                      A
 Frequencies --   1169.8751              1188.8886              1207.5950
 Red. masses --      1.8855                 3.3049                 2.3021
 Frc consts  --      1.5204                 2.7522                 1.9780
 IR Inten    --      9.9392                16.0891                20.7701

                     31                     32                     33
                      A                      A                      A
 Frequencies --   1237.5399              1272.1010              1330.1422
 Red. masses --      1.6514                 2.5591                 1.2974
 Frc consts  --      1.4901                 2.4399                 1.3524
 IR Inten    --     14.9316                16.5866                 1.9017

                     34                     35                     36
                      A                      A                      A
 Frequencies --   1387.2046              1410.0533              1423.8774
 Red. masses --      1.2227                 1.2274                 1.2603
 Frc consts  --      1.3863                 1.4379                 1.5054
 IR Inten    --      6.8332                 4.6773                23.3840

                     37                     38                     39
                      A                      A                      A
 Frequencies --   1476.8463              1479.8647              1486.6893
 Red. masses --      1.0597                 1.0642                 1.0548
 Frc consts  --      1.3617                 1.3731                 1.3736
 IR Inten    --      3.4422                 9.4478                 2.0530

                     40                     41                     42
                      A                      A                      A
 Frequencies --   1495.2211              1505.8917              1514.8320
 Red. masses --      1.1197                 1.1280                 1.1201
 Frc consts  --      1.4749                 1.5072                 1.5144
 IR Inten    --     23.9140                 8.2509                 4.3263

                     43                     44                     45
                      A                      A                      A
 Frequencies --   1540.2716              1648.1964              2360.8541
 Red. masses --      1.0892                 1.1002                12.6927
 Frc consts  --      1.5224                 1.7609                41.6815
 IR Inten    --      1.2900                29.9835                 2.9169

                     46                     47                     48
                      A                      A                      A
 Frequencies --   2919.3989              2971.4055              3038.8258
 Red. masses --      1.0686                 1.0899                 1.0366
 Frc consts  --      5.3659                 5.6698                 5.6397
 IR Inten    --     81.8712                68.8092                 9.6114

                     49                     50                     51
                      A                      A                      A
 Frequencies --   3044.0308              3111.2206              3119.6449
 Red. masses --      1.0379                 1.1012                 1.0972
 Frc consts  --      5.6663                 6.2801                 6.2917
 IR Inten    --     19.0203                10.9807                24.2120

                     52                     53                     54
                      A                      A                      A
 Frequencies --   3140.9324              3144.2896              3450.6626
 Red. masses --      1.1008                 1.1035                 1.0738
 Frc consts  --      6.3985                 6.4281                 7.5331
 IR Inten    --     11.0571                10.3868                 4.8645

                     55                     56                     57
                      A                      A                      A
 Frequencies --   3505.0330              3510.2077              3597.5269
 Red. masses --      1.0752                 1.0494                 1.0929
 Frc consts  --      7.7828                 7.6184                 8.3337
 IR Inten    --      2.9960                 0.6776                 1.9613

 - Thermochemistry -
 -------------------
 Temperature   298.150 Kelvin.  Pressure   1.00000 Atm.
 Atom     1 has atomic number  6 and mass  12.00000

 Molecular mass:   128.10620 amu.
 Principal axes and moments of inertia in atomic units:
                           1         2         3
     Eigenvalues --   686.149821944.402282178.34377
           X            0.99949  -0.03150  -0.00519
           Y            0.03149   0.99950  -0.00212
           Z            0.00525   0.00196   0.99998
 This molecule is an asymmetric top.
 Rotational symmetry number  1.
 Warning -- assumption of classical behavior for rotation
           may cause significant error
 Rotational temperatures (Kelvin)      0.12623     0.04455     0.03976
 Rotational constants (GHZ):           2.63024     0.92817     0.82849
 Zero-point vibrational energy     476985.7 (Joules/Mol)
                                  114.00232 (Kcal/Mol)
 Warning -- explicit consideration of  15 degrees of freedom as
           vibrations may cause significant error
 Vibrational temperatures:     83.13   122.43   177.16   258.62   276.84
          (Kelvin)            335.21   358.93   379.07   419.52   462.85
                              480.43   560.29   575.75   786.83   850.91
                              898.61   971.31  1027.87  1193.50  1258.99
                             1335.61  1349.39  1387.50  1414.98  1479.91
                             1568.22  1649.31  1683.19  1710.55  1737.46
                             1780.54  1830.27  1913.78  1995.88  2028.75
                             2048.64  2124.85  2129.20  2139.01  2151.29
                             2166.64  2179.51  2216.11  2371.39  3396.74
                             4200.36  4275.19  4372.19  4379.68  4476.35
                             4488.47  4519.10  4523.93  4964.73  5042.96
                             5050.41  5176.04

 Zero-point correction=                           0.181674 (Hartree/Particle)
 Thermal correction to Energy=                    0.192513
 Thermal correction to Enthalpy=                  0.193457
 Thermal correction to Gibbs Free Energy=         0.145753
 Sum of electronic and zero-point Energies=           -416.547225
 Sum of electronic and thermal Energies=              -416.536386
 Sum of electronic and thermal Enthalpies=            -416.535442
 Sum of electronic and thermal Free Energies=         -416.583146

                     E (Thermal)             CV                S
                      KCal/Mol        Cal/Mol-Kelvin    Cal/Mol-Kelvin
 Total                  120.804             39.328            100.403
 Electronic               0.000              0.000              0.000
 Translational            0.889              2.981             40.456
 Rotational               0.889              2.981             29.454
 Vibrational            119.026             33.366             30.493
 Vibration     1          0.596              1.974              4.532
 Vibration     2          0.601              1.960              3.770
 Vibration     3          0.610              1.930              3.051
 Vibration     4          0.629              1.867              2.331
 Vibration     5          0.634              1.850              2.204
 Vibration     6          0.654              1.790              1.856
 Vibration     7          0.662              1.764              1.734
 Vibration     8          0.670              1.740              1.639
 Vibration     9          0.687              1.689              1.465
 Vibration    10          0.707              1.632              1.301
 Vibration    11          0.715              1.608              1.241
 Vibration    12          0.757              1.493              1.002
 Vibration    13          0.766              1.470              0.962
 Vibration    14          0.902              1.147              0.551
 Vibration    15          0.949              1.050              0.465

 Optimization completed.
    -- Stationary point found.
 Normal termination of Gaussian 16 at Mon May 31 17:57:10 2021.
