 Gaussian 16, Revision A.03,
 Gaussian 16:  ES64L-G16RevA.03 25-Dec-2016

 -----------------------------
 # opt freq b3lyp/6-31g(2df,p)
 -----------------------------

 -------------------
 Title Card Required
 -------------------
 Symbolic Z-matrix:
 Charge =  0 Multiplicity = 1

 SCF Done:  E(RB3LYP) =  -398.282906110     A.U. after   14 cycles
 SCF Done:  E(RB3LYP) =  -398.299648480     A.U. after   14 cycles
 SCF Done:  E(RB3LYP) =  -398.298803537     A.U. after   14 cycles
 SCF Done:  E(RB3LYP) =  -398.300511388     A.U. after   12 cycles
 SCF Done:  E(RB3LYP) =  -398.299663433     A.U. after   14 cycles
 SCF Done:  E(RB3LYP) =  -398.300940425     A.U. after   11 cycles
 SCF Done:  E(RB3LYP) =  -398.300996979     A.U. after   11 cycles
 SCF Done:  E(RB3LYP) =  -398.301025650     A.U. after   11 cycles
 SCF Done:  E(RB3LYP) =  -398.301059574     A.U. after   12 cycles
 SCF Done:  E(RB3LYP) =  -398.301151893     A.U. after   15 cycles
 SCF Done:  E(RB3LYP) =  -398.301243132     A.U. after   14 cycles
 SCF Done:  E(RB3LYP) =  -398.301555131     A.U. after   15 cycles
 SCF Done:  E(RB3LYP) =  -398.301746140     A.U. after   13 cycles
 SCF Done:  E(RB3LYP) =  -398.301777312     A.U. after   14 cycles
 SCF Done:  E(RB3LYP) =  -398.301785944     A.U. after   12 cycles
 SCF Done:  E(RB3LYP) =  -398.301790700     A.U. after   11 cycles
 SCF Done:  E(RB3LYP) =  -398.301791255     A.U. after    8 cycles
 SCF Done:  E(RB3LYP) =  -398.301791361     A.U. after    7 cycles
 SCF Done:  E(RB3LYP) =  -398.301791379     A.U. after    7 cycles
 Optimization completed.
    -- Stationary point found.
 Normal termination of Gaussian 16 at Tue Jun  1 08:30:36 2021.

 ----------------------------------------------------------------------
 #N Geom=AllCheck Guess=TCheck SCRF=Check GenChk RB3LYP/6-31G(2df,p) Fr
 eq
 ----------------------------------------------------------------------

 Structure from the checkpoint file:  "CCpCCCtNpNdCdN.chk"
 -------------------
 Title Card Required
 -------------------
 Charge =  0 Multiplicity = 1

                         Standard orientation:
 ---------------------------------------------------------------------
 Center     Atomic      Atomic             Coordinates (Angstroms)
 Number     Number       Type             X           Y           Z
 ---------------------------------------------------------------------
      1          6           0        0.601569    2.042549   -0.098948
      2          6           0        0.601454    0.536776    0.182492
      3          6           0       -0.684301   -0.169754   -0.281038
      4          6           0       -1.941030    0.299567    0.478676
      5          6           0       -3.129929   -0.458613    0.095415
      6          7           0       -4.062842   -1.064454   -0.217093
      7          7           0        1.717902   -0.075957   -0.538085
      8          6           0        2.710326   -0.607417   -0.079239
      9          7           0        3.669159   -1.284726    0.277766
     10          1           0       -0.199001    2.549416    0.447476
     11          1           0        0.471664    2.230865   -1.169003
     12          1           0        1.550829    2.486671    0.211761
     13          1           0        0.718122    0.375209    1.263947
     14          1           0       -0.561648   -1.247063   -0.137036
     15          1           0       -0.816003   -0.006967   -1.355598
     16          1           0       -2.140193    1.360221    0.293330
     17          1           0       -1.796547    0.189948    1.560513
     18          1           0        4.554718   -0.820992    0.442349
 ---------------------------------------------------------------------

 SCF Done:  E(RB3LYP) =  -398.301791379     A.U. after    1 cycles

 The electronic state is 1-A.
 Alpha  occ. eigenvalues --  -14.34733 -14.34158 -14.32774 -10.28194 -10.25380
 Alpha  occ. eigenvalues --  -10.24241 -10.22153 -10.21245 -10.19709  -0.96945
 Alpha  occ. eigenvalues --   -0.90998  -0.90210  -0.82811  -0.76970  -0.69231
 Alpha  occ. eigenvalues --   -0.62343  -0.56983  -0.54374  -0.51350  -0.48837
 Alpha  occ. eigenvalues --   -0.45625  -0.45043  -0.41385  -0.40773  -0.40021
 Alpha  occ. eigenvalues --   -0.39312  -0.36758  -0.35761  -0.35315  -0.32513
 Alpha  occ. eigenvalues --   -0.32409  -0.27552  -0.27261
 Alpha virt. eigenvalues --    0.01944   0.02271   0.03560   0.03773   0.08039
 Alpha virt. eigenvalues --    0.08666   0.10788   0.11799   0.12635   0.13790
 Alpha virt. eigenvalues --    0.15405   0.15917   0.17765   0.19198   0.20416

 Mulliken charges:
               1
     1  C   -0.381030
     2  C   -0.005694
     3  C   -0.170210
     4  C   -0.355327
     5  C    0.261047
     6  N   -0.299893
     7  N   -0.263996
     8  C    0.434002
     9  N   -0.538715
    10  H    0.120355
    11  H    0.134591
    12  H    0.126844
    13  H    0.091805
    14  H    0.132994
    15  H    0.132192
    16  H    0.156547
    17  H    0.153103
    18  H    0.271384
 Sum of Mulliken charges =  -0.00000

 Dipole moment (field-independent basis, Debye):
    X=              3.3127    Y=              3.6058    Z=              1.7707  Tot=              5.2068
 Quadrupole moment (field-independent basis, Debye-Ang):
   XX=            -67.2501   YY=            -56.6669   ZZ=            -52.9618
   XY=             -3.2283   XZ=             -0.7536   YZ=             -0.1182

  Exact polarizability: 115.770  -6.133  73.667   7.655  -0.806  58.943
 Approx polarizability: 158.352 -12.550 112.521  21.211  -4.295  95.718

                      1                      2                      3
                      A                      A                      A
 Frequencies --     25.6695                66.2128                83.6349
 Red. masses --      6.0634                 3.1527                 2.6101
 Frc consts  --      0.0024                 0.0081                 0.0108
 IR Inten    --      0.9136                 7.2052                 0.5045

                      4                      5                      6
                      A                      A                      A
 Frequencies --    121.2130               157.7205               244.7507
 Red. masses --      4.5590                 3.5882                 1.2448
 Frc consts  --      0.0395                 0.0526                 0.0439
 IR Inten    --      5.7263                 2.4298                 2.2803

                      7                      8                      9
                      A                      A                      A
 Frequencies --    255.1017               353.3106               381.4263
 Red. masses --      3.0677                 3.9892                 2.8743
 Frc consts  --      0.1176                 0.2934                 0.2464
 IR Inten    --      3.0498                24.3458                 5.5316

                     10                     11                     12
                      A                      A                      A
 Frequencies --    394.6727               443.2336               482.9663
 Red. masses --      3.5422                 2.3572                 2.1324
 Frc consts  --      0.3251                 0.2728                 0.2931
 IR Inten    --      0.0956                 5.3708                60.7032

                     13                     14                     15
                      A                      A                      A
 Frequencies --    551.1253               610.6356               650.8886
 Red. masses --      4.1677                 2.1721                 5.3580
 Frc consts  --      0.7458                 0.4772                 1.3374
 IR Inten    --      5.9260                55.1292                12.9532

                     16                     17                     18
                      A                      A                      A
 Frequencies --    765.9430               825.3745               914.3867
 Red. masses --      1.2797                 2.6879                 2.4667
 Frc consts  --      0.4423                 1.0789                 1.2152
 IR Inten    --      1.6573                 6.1428                 4.2489

                     19                     20                     21
                      A                      A                      A
 Frequencies --    940.7642               945.8003               953.3849
 Red. masses --      1.4906                 4.1126                 1.3522
 Frc consts  --      0.7772                 2.1675                 0.7241
 IR Inten    --    308.4500                 7.8097                 1.2197

                     22                     23                     24
                      A                      A                      A
 Frequencies --   1031.2619              1077.8038              1127.7663
 Red. masses --      2.9624                 2.7483                 1.8488
 Frc consts  --      1.8563                 1.8810                 1.3854
 IR Inten    --      2.1112                 8.8752                 2.4116

                     25                     26                     27
                      A                      A                      A
 Frequencies --   1139.5415              1224.2362              1280.2212
 Red. masses --      1.8260                 1.3892                 1.2545
 Frc consts  --      1.3971                 1.2267                 1.2114
 IR Inten    --     13.8129                14.9751                 2.6556

                     28                     29                     30
                      A                      A                      A
 Frequencies --   1311.9314              1347.5805              1369.8345
 Red. masses --      1.1242                 1.3820                 1.3075
 Frc consts  --      1.1400                 1.4787                 1.4455
 IR Inten    --      0.4095                24.5133                 5.2868

                     31                     32                     33
                      A                      A                      A
 Frequencies --   1385.7258              1405.7007              1412.5846
 Red. masses --      1.7511                 3.3168                 1.2765
 Frc consts  --      1.9811                 3.8614                 1.5008
 IR Inten    --      3.7549                50.5439                14.3629

                     34                     35                     36
                      A                      A                      A
 Frequencies --   1469.0817              1489.1898              1491.4826
 Red. masses --      1.0779                 1.0599                 1.0725
 Frc consts  --      1.3706                 1.3849                 1.4057
 IR Inten    --      1.3149                 4.0931                 0.1828

                     37                     38                     39
                      A                      A                      A
 Frequencies --   1503.9051              2252.4875              2364.6849
 Red. masses --      1.0652                10.4616                12.6094
 Frc consts  --      1.4194                31.2732                41.5423
 IR Inten    --      7.2629               981.3613                10.4531

                     40                     41                     42
                      A                      A                      A
 Frequencies --   2994.0328              3038.5041              3044.1866
 Red. masses --      1.0838                 1.0586                 1.0371
 Frc consts  --      5.7242                 5.7584                 5.6627
 IR Inten    --     28.0161                 2.2773                14.8645

                     43                     44                     45
                      A                      A                      A
 Frequencies --   3059.3372              3079.0296              3108.0743
 Red. masses --      1.0597                 1.0987                 1.1048
 Frc consts  --      5.8439                 6.1371                 6.2879
 IR Inten    --     13.1791                 0.7952                16.0701

                     46                     47                     48
                      A                      A                      A
 Frequencies --   3118.8380              3121.8272              3584.2342
 Red. masses --      1.1013                 1.1024                 1.0787
 Frc consts  --      6.3115                 6.3302                 8.1647
 IR Inten    --     28.0491                19.6309                67.9247

 - Thermochemistry -
 -------------------
 Temperature   298.150 Kelvin.  Pressure   1.00000 Atm.
 Atom     1 has atomic number  6 and mass  12.00000

 Molecular mass:   123.07965 amu.
 Principal axes and moments of inertia in atomic units:
                           1         2         3
     Eigenvalues --   502.273492775.363823148.95426
           X            1.00000  -0.00236   0.00051
           Y            0.00236   1.00000   0.00128
           Z           -0.00051  -0.00128   1.00000
 This molecule is an asymmetric top.
 Rotational symmetry number  1.
 Warning -- assumption of classical behavior for rotation
           may cause significant error
 Rotational temperatures (Kelvin)      0.17244     0.03121     0.02751
 Rotational constants (GHZ):           3.59314     0.65027     0.57312
 Zero-point vibrational energy     382812.8 (Joules/Mol)
                                   91.49445 (Kcal/Mol)
 Warning -- explicit consideration of  14 degrees of freedom as
           vibrations may cause significant error
 Vibrational temperatures:     36.93    95.27   120.33   174.40   226.92
          (Kelvin)            352.14   367.03   508.34   548.79   567.85
                              637.71   694.88   792.95   878.57   936.48
                             1102.02  1187.53  1315.60  1353.55  1360.80
                             1371.71  1483.76  1550.72  1622.60  1639.55
                             1761.40  1841.95  1887.58  1938.87  1970.89
                             1993.75  2022.49  2032.39  2113.68  2142.61
                             2145.91  2163.78  3240.83  3402.25  4307.75
                             4371.73  4379.91  4401.70  4430.04  4471.83
                             4487.31  4491.61  5156.91

 Zero-point correction=                           0.145806 (Hartree/Particle)
 Thermal correction to Energy=                    0.155924
 Thermal correction to Enthalpy=                  0.156868
 Thermal correction to Gibbs Free Energy=         0.108899
 Sum of electronic and zero-point Energies=           -398.155986
 Sum of electronic and thermal Energies=              -398.145867
 Sum of electronic and thermal Enthalpies=            -398.144923
 Sum of electronic and thermal Free Energies=         -398.192892

                     E (Thermal)             CV                S
                      KCal/Mol        Cal/Mol-Kelvin    Cal/Mol-Kelvin
 Total                   97.844             35.161            100.959
 Electronic               0.000              0.000              0.000
 Translational            0.889              2.981             40.337
 Rotational               0.889              2.981             29.863
 Vibrational             96.067             29.199             30.759
 Vibration     1          0.593              1.985              6.139
 Vibration     2          0.598              1.970              4.263
 Vibration     3          0.601              1.960              3.804
 Vibration     4          0.609              1.932              3.081
 Vibration     5          0.621              1.894              2.577
 Vibration     6          0.660              1.771              1.768
 Vibration     7          0.665              1.754              1.695
 Vibration     8          0.730              1.568              1.151
 Vibration     9          0.751              1.510              1.034
 Vibration    10          0.762              1.482              0.982
 Vibration    11          0.803              1.376              0.817
 Vibration    12          0.839              1.288              0.702
 Vibration    13          0.906              1.137              0.542
 Vibration    14          0.970              1.009              0.432

 Optimization completed.
    -- Stationary point found.
 Normal termination of Gaussian 16 at Tue Jun  1 08:52:02 2021.
