 Gaussian 16, Revision A.03,
 Gaussian 16:  ES64L-G16RevA.03 25-Dec-2016

 -----------------------------
 # opt freq b3lyp/6-31g(2df,p)
 -----------------------------

 -------------------
 Title Card Required
 -------------------
 Symbolic Z-matrix:
 Charge =  0 Multiplicity = 1

 SCF Done:  E(RB3LYP) =  -470.843322903     A.U. after   14 cycles
 SCF Done:  E(RB3LYP) =  -470.847346439     A.U. after   13 cycles
 SCF Done:  E(RB3LYP) =  -470.848200962     A.U. after   13 cycles
 SCF Done:  E(RB3LYP) =  -470.848535466     A.U. after   13 cycles
 SCF Done:  E(RB3LYP) =  -470.848883579     A.U. after   13 cycles
 SCF Done:  E(RB3LYP) =  -470.849278512     A.U. after   14 cycles
 SCF Done:  E(RB3LYP) =  -470.849491660     A.U. after   14 cycles
 SCF Done:  E(RB3LYP) =  -470.849662258     A.U. after   14 cycles
 SCF Done:  E(RB3LYP) =  -470.850008442     A.U. after   13 cycles
 SCF Done:  E(RB3LYP) =  -470.850142223     A.U. after   13 cycles
 SCF Done:  E(RB3LYP) =  -470.850332365     A.U. after   13 cycles
 SCF Done:  E(RB3LYP) =  -470.850412393     A.U. after   12 cycles
 SCF Done:  E(RB3LYP) =  -470.850415607     A.U. after   11 cycles
 SCF Done:  E(RB3LYP) =  -470.850416634     A.U. after    9 cycles
 SCF Done:  E(RB3LYP) =  -470.850428790     A.U. after   11 cycles
 SCF Done:  E(RB3LYP) =  -470.850429191     A.U. after   10 cycles
 SCF Done:  E(RB3LYP) =  -470.850430443     A.U. after    9 cycles
 SCF Done:  E(RB3LYP) =  -470.850430487     A.U. after    8 cycles
 SCF Done:  E(RB3LYP) =  -470.850430504     A.U. after    7 cycles
 Optimization completed.
    -- Stationary point found.
 Normal termination of Gaussian 16 at Tue Jun  1 00:05:16 2021.

 ----------------------------------------------------------------------
 #N Geom=AllCheck Guess=TCheck SCRF=Check GenChk RB3LYP/6-31G(2df,p) Fr
 eq
 ----------------------------------------------------------------------

 Structure from the checkpoint file:  "CCpCNCNdNpNCtN.chk"
 -------------------
 Title Card Required
 -------------------
 Charge =  0 Multiplicity = 1

                         Standard orientation:
 ---------------------------------------------------------------------
 Center     Atomic      Atomic             Coordinates (Angstroms)
 Number     Number       Type             X           Y           Z
 ---------------------------------------------------------------------
      1          6           0       -1.307980    2.241556   -0.084390
      2          6           0       -1.327601    0.734504   -0.323782
      3          6           0       -0.224410   -0.009575    0.441873
      4          7           0        1.093492    0.377563   -0.039483
      5          6           0        2.153959   -0.504075    0.412268
      6          7           0        3.432811    0.096622    0.007279
      7          7           0        4.240397   -0.739232   -0.421592
      8          7           0       -2.644273    0.220496    0.118416
      9          6           0       -2.950094   -1.067877   -0.066499
     10          7           0       -3.195345   -2.197582   -0.186521
     11          1           0       -0.374215    2.671509   -0.453976
     12          1           0       -1.408565    2.470657    0.981820
     13          1           0       -2.124050    2.736670   -0.622330
     14          1           0       -1.180963    0.538155   -1.394012
     15          1           0       -0.347475   -1.084243    0.264764
     16          1           0       -0.370538    0.149877    1.525815
     17          1           0        1.323775    1.320159    0.258825
     18          1           0        2.029990   -1.505899   -0.015874
     19          1           0        2.210836   -0.603270    1.514217
     20          1           0        5.106015   -0.220931   -0.654601
     21          1           0       -3.417629    0.855055   -0.028168
 ---------------------------------------------------------------------

 SCF Done:  E(RB3LYP) =  -470.850430504     A.U. after    1 cycles

 The electronic state is 1-A.
 Alpha  occ. eigenvalues --  -14.39194 -14.38363 -14.38184 -14.33164 -14.31121
 Alpha  occ. eigenvalues --  -10.24663 -10.24100 -10.23541 -10.22269 -10.20316
 Alpha  occ. eigenvalues --   -1.03926  -0.97167  -0.92308  -0.87687  -0.79440
 Alpha  occ. eigenvalues --   -0.74834  -0.69014  -0.61751  -0.60894  -0.58401
 Alpha  occ. eigenvalues --   -0.53067  -0.51042  -0.49133  -0.47287  -0.44468
 Alpha  occ. eigenvalues --   -0.43612  -0.42041  -0.40394  -0.40119  -0.39346
 Alpha  occ. eigenvalues --   -0.36756  -0.36091  -0.35237  -0.34603  -0.31959
 Alpha  occ. eigenvalues --   -0.25447  -0.24569  -0.23574
 Alpha virt. eigenvalues --   -0.04978   0.03319   0.06331   0.07273   0.08629
 Alpha virt. eigenvalues --    0.09975   0.10802   0.12072   0.12502   0.13170
 Alpha virt. eigenvalues --    0.14467   0.15772   0.17125   0.18079   0.18992

 Mulliken charges:
               1
     1  C   -0.429013
     2  C    0.027586
     3  C   -0.135036
     4  N   -0.308169
     5  C   -0.046183
     6  N   -0.127165
     7  N   -0.265989
     8  N   -0.397271
     9  C    0.331239
    10  N   -0.348277
    11  H    0.141044
    12  H    0.131667
    13  H    0.122666
    14  H    0.107175
    15  H    0.135649
    16  H    0.094357
    17  H    0.224810
    18  H    0.125498
    19  H    0.101534
    20  H    0.247751
    21  H    0.266128
 Sum of Mulliken charges =  -0.00000

 Dipole moment (field-independent basis, Debye):
    X=              1.1848    Y=              4.9444    Z=              0.6896  Tot=              5.1309
 Quadrupole moment (field-independent basis, Debye-Ang):
   XX=            -60.1804   YY=            -67.5034   ZZ=            -60.0773
   XY=            -12.7437   XZ=              0.9790   YZ=             -1.4618

  Exact polarizability: 108.565   2.265  91.610  -4.774   1.095  63.590
 Approx polarizability: 130.143   3.332 145.435  -8.297   5.865  99.600

                      1                      2                      3
                      A                      A                      A
 Frequencies --     39.9420                54.1722                60.1661
 Red. masses --      4.2896                 3.9076                 4.9074
 Frc consts  --      0.0040                 0.0068                 0.0105
 IR Inten    --      1.1211                 3.0668                 3.3983

                      4                      5                      6
                      A                      A                      A
 Frequencies --     95.7144               120.5839               144.5206
 Red. masses --      2.7120                 4.5824                 4.3207
 Frc consts  --      0.0146                 0.0393                 0.0532
 IR Inten    --      2.4551                 2.2308                 1.9803

                      7                      8                      9
                      A                      A                      A
 Frequencies --    160.6160               257.9656               279.7947
 Red. masses --      2.8604                 1.2387                 2.4164
 Frc consts  --      0.0435                 0.0486                 0.1115
 IR Inten    --      5.7808                 2.2332                 1.4837

                     10                     11                     12
                      A                      A                      A
 Frequencies --    311.1782               381.2160               397.8134
 Red. masses --      4.5698                 1.5790                 3.0826
 Frc consts  --      0.2607                 0.1352                 0.2874
 IR Inten    --      3.9352                53.7808                 2.1199

                     13                     14                     15
                      A                      A                      A
 Frequencies --    434.6122               487.9189               558.2853
 Red. masses --      2.3657                 3.4264                10.0595
 Frc consts  --      0.2633                 0.4806                 1.8473
 IR Inten    --     10.9136                 0.8221                12.0717

                     16                     17                     18
                      A                      A                      A
 Frequencies --    562.9238               659.3217               791.9196
 Red. masses --      3.6423                 4.0234                 1.2443
 Frc consts  --      0.6800                 1.0305                 0.4598
 IR Inten    --     24.6971                10.8283                48.8763

                     19                     20                     21
                      A                      A                      A
 Frequencies --    840.6231               862.7231               925.9714
 Red. masses --      1.9073                 1.4867                 1.3185
 Frc consts  --      0.7941                 0.6519                 0.6661
 IR Inten    --     14.6054                16.3173                13.0550

                     22                     23                     24
                      A                      A                      A
 Frequencies --    942.2744               987.1381              1063.4007
 Red. masses --      1.9899                 3.1633                 2.6016
 Frc consts  --      1.0410                 1.8161                 1.7333
 IR Inten    --      2.1967                 3.3576                 8.1649

                     25                     26                     27
                      A                      A                      A
 Frequencies --   1091.4247              1111.4156              1161.5587
 Red. masses --      1.5417                 2.3129                 3.1347
 Frc consts  --      1.0820                 1.6833                 2.4919
 IR Inten    --     23.2313                23.4948                44.0366

                     28                     29                     30
                      A                      A                      A
 Frequencies --   1164.3325              1172.7108              1199.3835
 Red. masses --      3.0007                 2.3310                 2.1678
 Frc consts  --      2.3967                 1.8887                 1.8373
 IR Inten    --     55.2030                11.1140                32.5007

                     31                     32                     33
                      A                      A                      A
 Frequencies --   1229.1792              1292.8373              1326.0192
 Red. masses --      1.2147                 1.2832                 1.1774
 Frc consts  --      1.0813                 1.2637                 1.2198
 IR Inten    --     18.9851                24.0102                23.6693

                     34                     35                     36
                      A                      A                      A
 Frequencies --   1364.1412              1373.1285              1404.2098
 Red. masses --      1.2769                 1.2422                 1.3195
 Frc consts  --      1.4000                 1.3800                 1.5329
 IR Inten    --     19.8933                 0.9257                10.9156

                     37                     38                     39
                      A                      A                      A
 Frequencies --   1426.0390              1454.3078              1482.7097
 Red. masses --      1.3736                 1.3737                 1.2130
 Frc consts  --      1.6457                 1.7118                 1.5712
 IR Inten    --     19.0945                27.2997                22.1271

                     40                     41                     42
                      A                      A                      A
 Frequencies --   1492.2643              1495.7774              1499.4140
 Red. masses --      1.2055                 1.1273                 1.1163
 Frc consts  --      1.5816                 1.4861                 1.4786
 IR Inten    --     48.6525                 5.9155                 3.3046

                     43                     44                     45
                      A                      A                      A
 Frequencies --   1509.4350              1515.2363              1668.6658
 Red. masses --      1.0968                 1.0788                10.4074
 Frc consts  --      1.4723                 1.4594                17.0738
 IR Inten    --      9.0743                 3.7696                 2.7349

                     46                     47                     48
                      A                      A                      A
 Frequencies --   2341.8827              2910.2454              2940.7047
 Red. masses --     12.3520                 1.0690                 1.0711
 Frc consts  --     39.9133                 5.3342                 5.4575
 IR Inten    --    123.7405                58.4019                52.7989

                     49                     50                     51
                      A                      A                      A
 Frequencies --   3020.8893              3034.9071              3052.7263
 Red. masses --      1.0835                 1.0374                 1.0903
 Frc consts  --      5.8259                 5.6299                 5.9862
 IR Inten    --     28.3313                16.9758                14.7619

                     52                     53                     54
                      A                      A                      A
 Frequencies --   3063.0779              3099.7841              3128.6178
 Red. masses --      1.0891                 1.1010                 1.0999
 Frc consts  --      6.0206                 6.2332                 6.3430
 IR Inten    --     15.0553                25.2005                16.4542

                     55                     56                     57
                      A                      A                      A
 Frequencies --   3246.3650              3520.8361              3582.2197
 Red. masses --      1.0739                 1.0729                 1.0745
 Frc consts  --      6.6681                 7.8361                 8.1242
 IR Inten    --     29.3846                 1.2790                27.0549

 - Thermochemistry -
 -------------------
 Temperature   298.150 Kelvin.  Pressure   1.00000 Atm.
 Atom     1 has atomic number  6 and mass  12.00000

 Molecular mass:   141.10145 amu.
 Principal axes and moments of inertia in atomic units:
                           1         2         3
     Eigenvalues --   736.078753400.202514009.87823
           X            0.99974  -0.02291   0.00184
           Y            0.02293   0.99969  -0.00979
           Z           -0.00161   0.00983   0.99995
 This molecule is an asymmetric top.
 Rotational symmetry number  1.
 Warning -- assumption of classical behavior for rotation
           may cause significant error
 Rotational temperatures (Kelvin)      0.11767     0.02547     0.02160
 Rotational constants (GHZ):           2.45183     0.53077     0.45007
 Zero-point vibrational energy     459349.5 (Joules/Mol)
                                  109.78717 (Kcal/Mol)
 Warning -- explicit consideration of  16 degrees of freedom as
           vibrations may cause significant error
 Vibrational temperatures:     57.47    77.94    86.57   137.71   173.49
          (Kelvin)            207.93   231.09   371.15   402.56   447.72
                              548.48   572.36   625.31   702.01   803.25
                              809.92   948.62  1139.40  1209.47  1241.27
                             1332.27  1355.72  1420.27  1530.00  1570.32
                             1599.08  1671.22  1675.21  1687.27  1725.65
                             1768.51  1860.10  1907.85  1962.69  1975.63
                             2020.34  2051.75  2092.42  2133.29  2147.04
                             2152.09  2157.32  2171.74  2180.09  2400.84
                             3369.45  4187.19  4231.02  4346.39  4366.55
                             4392.19  4407.09  4459.90  4501.38  4670.80
                             5065.70  5154.02

 Zero-point correction=                           0.174957 (Hartree/Particle)
 Thermal correction to Energy=                    0.186578
 Thermal correction to Enthalpy=                  0.187523
 Thermal correction to Gibbs Free Energy=         0.135849
 Sum of electronic and zero-point Energies=           -470.675474
 Sum of electronic and thermal Energies=              -470.663852
 Sum of electronic and thermal Enthalpies=            -470.662908
 Sum of electronic and thermal Free Energies=         -470.714582

                     E (Thermal)             CV                S
                      KCal/Mol        Cal/Mol-Kelvin    Cal/Mol-Kelvin
 Total                  117.080             39.847            108.757
 Electronic               0.000              0.000              0.000
 Translational            0.889              2.981             40.744
 Rotational               0.889              2.981             30.685
 Vibrational            115.302             33.885             37.328
 Vibration     1          0.594              1.981              5.262
 Vibration     2          0.596              1.976              4.659
 Vibration     3          0.597              1.973              4.452
 Vibration     4          0.603              1.952              3.540
 Vibration     5          0.609              1.932              3.091
 Vibration     6          0.616              1.909              2.743
 Vibration     7          0.622              1.891              2.543
 Vibration     8          0.667              1.749              1.675
 Vibration     9          0.680              1.711              1.535
 Vibration    10          0.700              1.652              1.356
 Vibration    11          0.751              1.510              1.034
 Vibration    12          0.764              1.475              0.971
 Vibration    13          0.795              1.395              0.844
 Vibration    14          0.844              1.277              0.689
 Vibration    15          0.914              1.122              0.527
 Vibration    16          0.919              1.111              0.518

 Optimization completed.
    -- Stationary point found.
 Normal termination of Gaussian 16 at Tue Jun  1 00:35:22 2021.
