 Gaussian 16, Revision A.03,
 Gaussian 16:  ES64L-G16RevA.03 25-Dec-2016

 -----------------------------
 # opt freq b3lyp/6-31g(2df,p)
 -----------------------------

 -------------------
 Title Card Required
 -------------------
 Symbolic Z-matrix:
 Charge =  0 Multiplicity = 1

 SCF Done:  E(RB3LYP) =  -401.905809406     A.U. after   13 cycles
 SCF Done:  E(RB3LYP) =  -401.910482944     A.U. after   12 cycles
 SCF Done:  E(RB3LYP) =  -401.911521360     A.U. after   11 cycles
 SCF Done:  E(RB3LYP) =  -401.911825639     A.U. after   10 cycles
 SCF Done:  E(RB3LYP) =  -401.911883994     A.U. after   10 cycles
 SCF Done:  E(RB3LYP) =  -401.911915846     A.U. after    9 cycles
 SCF Done:  E(RB3LYP) =  -401.911929215     A.U. after    9 cycles
 SCF Done:  E(RB3LYP) =  -401.911930691     A.U. after    8 cycles
 SCF Done:  E(RB3LYP) =  -401.911931097     A.U. after    7 cycles
 SCF Done:  E(RB3LYP) =  -401.911933347     A.U. after    9 cycles
 SCF Done:  E(RB3LYP) =  -401.912697887     A.U. after   12 cycles
 SCF Done:  E(RB3LYP) =  -401.911687371     A.U. after   13 cycles
 SCF Done:  E(RB3LYP) =  -401.913542221     A.U. after   12 cycles
 SCF Done:  E(RB3LYP) =  -401.913731577     A.U. after   10 cycles
 SCF Done:  E(RB3LYP) =  -401.913779378     A.U. after   11 cycles
 SCF Done:  E(RB3LYP) =  -401.913792529     A.U. after    9 cycles
 SCF Done:  E(RB3LYP) =  -401.913796620     A.U. after    8 cycles
 SCF Done:  E(RB3LYP) =  -401.913797478     A.U. after    7 cycles
 SCF Done:  E(RB3LYP) =  -401.913797840     A.U. after    7 cycles
 Optimization completed.
    -- Stationary point found.
 Normal termination of Gaussian 16 at Mon May 31 17:13:06 2021.

 ----------------------------------------------------------------------
 #N Geom=AllCheck Guess=TCheck SCRF=Check GenChk RB3LYP/6-31G(2df,p) Fr
 eq
 ----------------------------------------------------------------------

 Structure from the checkpoint file:  "CCpCpCpNpCCdNN.chk"
 -------------------
 Title Card Required
 -------------------
 Charge =  0 Multiplicity = 1

                         Standard orientation:
 ---------------------------------------------------------------------
 Center     Atomic      Atomic             Coordinates (Angstroms)
 Number     Number       Type             X           Y           Z
 ---------------------------------------------------------------------
      1          6           0       -3.133471    0.864593   -0.080905
      2          6           0       -2.039348   -0.135288    0.323540
      3          6           0       -2.467426   -1.555699   -0.080186
      4          6           0       -0.656453    0.259413   -0.266036
      5          7           0       -0.199799    1.615154    0.063118
      6          6           0        0.454796   -0.725875    0.150015
      7          6           0        1.810741   -0.318048   -0.342284
      8          7           0        2.813074   -0.274590    0.439594
      9          7           0        4.048866    0.015306   -0.112383
     10          1           0       -4.099559    0.573687    0.343591
     11          1           0       -3.250248    0.900052   -1.171307
     12          1           0       -2.920572    1.879261    0.268175
     13          1           0       -1.941627   -0.104947    1.419596
     14          1           0       -2.476218   -1.666597   -1.171696
     15          1           0       -3.479622   -1.770167    0.277795
     16          1           0       -1.807052   -2.323995    0.329169
     17          1           0       -0.748063    0.223303   -1.363317
     18          1           0       -0.047124    1.696401    1.065471
     19          1           0       -0.902816    2.303433   -0.182870
     20          1           0        0.213236   -1.721947   -0.239845
     21          1           0        0.497907   -0.813137    1.242452
     22          1           0        1.903072   -0.070414   -1.409984
     23          1           0        4.617670    0.475304    0.586880
     24          1           0        3.992997    0.594099   -0.951268
 ---------------------------------------------------------------------

 SCF Done:  E(RB3LYP) =  -401.913797840     A.U. after    1 cycles

 The electronic state is 1-A.
 Alpha  occ. eigenvalues --  -14.34008 -14.33755 -14.30480 -10.20912 -10.19782
 Alpha  occ. eigenvalues --  -10.18620 -10.17798 -10.17506 -10.17310  -0.96968
 Alpha  occ. eigenvalues --   -0.88490  -0.80086  -0.78666  -0.72228  -0.68045
 Alpha  occ. eigenvalues --   -0.62767  -0.56265  -0.56207  -0.49516  -0.49331
 Alpha  occ. eigenvalues --   -0.49079  -0.45318  -0.44371  -0.42063  -0.39713
 Alpha  occ. eigenvalues --   -0.38660  -0.38071  -0.37727  -0.36067  -0.34690
 Alpha  occ. eigenvalues --   -0.34014  -0.32473  -0.32072  -0.25624  -0.23384
 Alpha  occ. eigenvalues --   -0.21286
 Alpha virt. eigenvalues --    0.02703   0.07548   0.09735   0.10191   0.11589
 Alpha virt. eigenvalues --    0.12964   0.13980   0.14320   0.15492   0.16590
 Alpha virt. eigenvalues --    0.16915   0.17576   0.18201   0.18584   0.19597

 Mulliken charges:
               1
     1  C   -0.402180
     2  C    0.043310
     3  C   -0.393010
     4  C    0.036962
     5  N   -0.508648
     6  C   -0.269348
     7  C    0.062162
     8  N   -0.149160
     9  N   -0.431252
    10  H    0.113633
    11  H    0.112162
    12  H    0.102593
    13  H    0.064846
    14  H    0.111696
    15  H    0.109575
    16  H    0.120009
    17  H    0.072044
    18  H    0.223341
    19  H    0.225153
    20  H    0.110956
    21  H    0.105189
    22  H    0.062789
    23  H    0.250984
    24  H    0.226194
 Sum of Mulliken charges =  -0.00000

 Dipole moment (field-independent basis, Debye):
    X=             -1.4601    Y=              1.3301    Z=             -0.4247  Tot=              2.0202
 Quadrupole moment (field-independent basis, Debye-Ang):
   XX=            -56.0749   YY=            -57.2023   ZZ=            -55.5405
   XY=              5.0469   XZ=             -1.9510   YZ=              1.2948

  Exact polarizability: 122.605   5.215  77.805   3.186  -0.881  75.357
 Approx polarizability: 151.570   6.871 110.098  10.226  -1.552 122.979

                      1                      2                      3
                      A                      A                      A
 Frequencies --     50.7462                60.6578                78.8070
 Red. masses --      3.4975                 2.3628                 3.2811
 Frc consts  --      0.0053                 0.0051                 0.0120
 IR Inten    --      0.3579                 2.1474                 0.9352

                      4                      5                      6
                      A                      A                      A
 Frequencies --    140.2704               196.7959               223.7201
 Red. masses --      2.2855                 1.4929                 1.1492
 Frc consts  --      0.0265                 0.0341                 0.0339
 IR Inten    --     16.3118                 2.9073                 3.2906

                      7                      8                      9
                      A                      A                      A
 Frequencies --    242.0421               256.2264               299.8588
 Red. masses --      1.2550                 1.7727                 2.2725
 Frc consts  --      0.0433                 0.0686                 0.1204
 IR Inten    --     19.0027                 4.6745                18.5504

                     10                     11                     12
                      A                      A                      A
 Frequencies --    326.9503               353.3295               369.3129
 Red. masses --      2.9347                 2.3093                 2.1188
 Frc consts  --      0.1848                 0.1699                 0.1703
 IR Inten    --      8.1394                 6.4688                 1.2767

                     13                     14                     15
                      A                      A                      A
 Frequencies --    397.9694               408.4777               471.3187
 Red. masses --      1.4031                 2.4912                 2.5428
 Frc consts  --      0.1309                 0.2449                 0.3328
 IR Inten    --     16.6085                 0.2163                 4.8672

                     16                     17                     18
                      A                      A                      A
 Frequencies --    538.4738               593.0157               770.9685
 Red. masses --      2.2366                 3.0054                 1.6167
 Frc consts  --      0.3821                 0.6227                 0.5662
 IR Inten    --     15.8065                 0.8286               257.3062

                     19                     20                     21
                      A                      A                      A
 Frequencies --    800.1594               864.4157               891.3458
 Red. masses --      1.9893                 1.8365                 1.6500
 Frc consts  --      0.7504                 0.8085                 0.7724
 IR Inten    --    124.2374                 2.2625                84.3788

                     22                     23                     24
                      A                      A                      A
 Frequencies --    908.1527               927.7103               953.7304
 Red. masses --      1.8228                 1.2005                 1.6584
 Frc consts  --      0.8857                 0.6087                 0.8888
 IR Inten    --     21.9420                 5.8916                 7.6634

                     25                     26                     27
                      A                      A                      A
 Frequencies --    965.5215               991.9076              1055.3047
 Red. masses --      1.4195                 1.8360                 1.8690
 Frc consts  --      0.7797                 1.0643                 1.2263
 IR Inten    --      1.4779                11.0974                 5.5882

                     28                     29                     30
                      A                      A                      A
 Frequencies --   1095.4378              1127.2815              1139.2090
 Red. masses --      2.8617                 2.2572                 1.9131
 Frc consts  --      2.0232                 1.6900                 1.4628
 IR Inten    --      9.6398                 9.3614                21.7546

                     31                     32                     33
                      A                      A                      A
 Frequencies --   1163.9004              1186.2245              1186.6747
 Red. masses --      2.2617                 1.7457                 1.6600
 Frc consts  --      1.8051                 1.4473                 1.3772
 IR Inten    --      3.0307                 2.0801                 4.4708

                     34                     35                     36
                      A                      A                      A
 Frequencies --   1263.5795              1278.8973              1308.5278
 Red. masses --      1.4145                 1.2217                 1.2601
 Frc consts  --      1.3307                 1.1773                 1.2712
 IR Inten    --     15.3292                 2.4966                 1.2318

                     37                     38                     39
                      A                      A                      A
 Frequencies --   1335.8771              1346.3791              1378.8448
 Red. masses --      1.3947                 1.3573                 1.4052
 Frc consts  --      1.4664                 1.4496                 1.5741
 IR Inten    --      6.1067                 2.5242                 1.2287

                     40                     41                     42
                      A                      A                      A
 Frequencies --   1396.1773              1406.2172              1421.2027
 Red. masses --      1.2441                 1.3384                 1.2243
 Frc consts  --      1.4289                 1.5594                 1.4570
 IR Inten    --      7.4357                 1.6528                 4.2256

                     43                     44                     45
                      A                      A                      A
 Frequencies --   1425.9538              1471.9531              1486.9965
 Red. masses --      1.5052                 1.0979                 1.0505
 Frc consts  --      1.8032                 1.4015                 1.3686
 IR Inten    --     10.9478                 4.0595                 0.4232

                     46                     47                     48
                      A                      A                      A
 Frequencies --   1497.6406              1504.6034              1516.6158
 Red. masses --      1.0428                 1.0569                 1.0459
 Frc consts  --      1.3780                 1.4097                 1.4174
 IR Inten    --      2.6673                 2.5792                11.0217

                     49                     50                     51
                      A                      A                      A
 Frequencies --   1654.2194              1657.7704              1735.3966
 Red. masses --      1.0943                 1.1199                 6.5011
 Frc consts  --      1.7643                 1.8134                11.5355
 IR Inten    --     20.9540                22.7200                 2.0772

                     52                     53                     54
                      A                      A                      A
 Frequencies --   2975.3791              2992.3306              3006.2605
 Red. masses --      1.0799                 1.0848                 1.0847
 Frc consts  --      5.6327                 5.7230                 5.7756
 IR Inten    --      3.1276                36.2090                50.1640

                     55                     56                     57
                      A                      A                      A
 Frequencies --   3023.3670              3026.6150              3029.5849
 Red. masses --      1.0385                 1.0537                 1.0435
 Frc consts  --      5.5930                 5.6870                 5.6430
 IR Inten    --     19.3981                20.1401                33.3510

                     58                     59                     60
                      A                      A                      A
 Frequencies --   3071.2426              3087.1443              3093.2644
 Red. masses --      1.1018                 1.0992                 1.0984
 Frc consts  --      6.1233                 6.1721                 6.1919
 IR Inten    --     27.6598                 5.1509                58.8410

                     61                     62                     63
                      A                      A                      A
 Frequencies --   3101.6943              3114.4256              3423.4452
 Red. masses --      1.1004                 1.0989                 1.0535
 Frc consts  --      6.2376                 6.2799                 7.2746
 IR Inten    --     37.4908                32.4833                 6.9790

                     64                     65                     66
                      A                      A                      A
 Frequencies --   3485.8399              3578.2483              3593.3549
 Red. masses --      1.0502                 1.0904                 1.0884
 Frc consts  --      7.5184                 8.2259                 8.2801
 IR Inten    --      0.1948                 0.1854                 7.3928

 - Thermochemistry -
 -------------------
 Temperature   298.150 Kelvin.  Pressure   1.00000 Atm.
 Atom     1 has atomic number  6 and mass  12.00000

 Molecular mass:   129.12660 amu.
 Principal axes and moments of inertia in atomic units:
                           1         2         3
     Eigenvalues --   474.055602687.007833018.47019
           X            0.99996   0.00842  -0.00246
           Y           -0.00840   0.99995   0.00510
           Z            0.00251  -0.00508   0.99998
 This molecule is an asymmetric top.
 Rotational symmetry number  1.
 Warning -- assumption of classical behavior for rotation
           may cause significant error
 Rotational temperatures (Kelvin)      0.18271     0.03223     0.02869
 Rotational constants (GHZ):           3.80702     0.67165     0.59790
 Zero-point vibrational energy     566581.1 (Joules/Mol)
                                  135.41614 (Kcal/Mol)
 Warning -- explicit consideration of  17 degrees of freedom as
           vibrations may cause significant error
 Vibrational temperatures:     73.01    87.27   113.39   201.82   283.15
          (Kelvin)            321.88   348.24   368.65   431.43   470.41
                              508.36   531.36   572.59   587.71   678.12
                              774.74   853.22  1109.25  1151.25  1243.70
                             1282.45  1306.63  1334.77  1372.21  1389.17
                             1427.13  1518.35  1576.09  1621.91  1639.07
                             1674.59  1706.71  1707.36  1818.01  1840.05
                             1882.68  1922.03  1937.14  1983.85  2008.79
                             2023.23  2044.79  2051.63  2117.81  2139.46
                             2154.77  2164.79  2182.07  2380.05  2385.16
                             2496.85  4280.91  4305.30  4325.34  4349.95
                             4354.62  4358.90  4418.83  4441.71  4450.52
                             4462.65  4480.96  4925.57  5015.35  5148.30
                             5170.04

 Zero-point correction=                           0.215799 (Hartree/Particle)
 Thermal correction to Energy=                    0.227291
 Thermal correction to Enthalpy=                  0.228235
 Thermal correction to Gibbs Free Energy=         0.178670
 Sum of electronic and zero-point Energies=           -401.697998
 Sum of electronic and thermal Energies=              -401.686507
 Sum of electronic and thermal Enthalpies=            -401.685563
 Sum of electronic and thermal Free Energies=         -401.735128

                     E (Thermal)             CV                S
                      KCal/Mol        Cal/Mol-Kelvin    Cal/Mol-Kelvin
 Total                  142.627             41.931            104.319
 Electronic               0.000              0.000              0.000
 Translational            0.889              2.981             40.480
 Rotational               0.889              2.981             29.732
 Vibrational            140.850             35.969             34.107
 Vibration     1          0.595              1.977              4.788
 Vibration     2          0.597              1.973              4.436
 Vibration     3          0.600              1.963              3.920
 Vibration     4          0.615              1.913              2.800
 Vibration     5          0.636              1.844              2.163
 Vibration     6          0.649              1.805              1.929
 Vibration     7          0.658              1.776              1.788
 Vibration     8          0.666              1.752              1.687
 Vibration     9          0.692              1.674              1.418
 Vibration    10          0.711              1.622              1.275
 Vibration    11          0.730              1.568              1.151
 Vibration    12          0.742              1.535              1.083
 Vibration    13          0.764              1.474              0.970
 Vibration    14          0.773              1.452              0.932
 Vibration    15          0.828              1.314              0.734
 Vibration    16          0.894              1.165              0.569
 Vibration    17          0.951              1.047              0.462

 Optimization completed.
    -- Stationary point found.
 Normal termination of Gaussian 16 at Mon May 31 17:58:30 2021.
