 Gaussian 16, Revision A.03,
 Gaussian 16:  ES64L-G16RevA.03 25-Dec-2016

 -----------------------------
 # opt freq b3lyp/6-31g(2df,p)
 -----------------------------

 -------------------
 Title Card Required
 -------------------
 Symbolic Z-matrix:
 Charge =  0 Multiplicity = 1

 SCF Done:  E(RB3LYP) =  -458.482605915     A.U. after   12 cycles
 SCF Done:  E(RB3LYP) =  -458.491657748     A.U. after   10 cycles
 SCF Done:  E(RB3LYP) =  -458.493071953     A.U. after    9 cycles
 SCF Done:  E(RB3LYP) =  -458.493481924     A.U. after    9 cycles
 SCF Done:  E(RB3LYP) =  -458.493716458     A.U. after   10 cycles
 SCF Done:  E(RB3LYP) =  -458.493784584     A.U. after    9 cycles
 SCF Done:  E(RB3LYP) =  -458.493838315     A.U. after    9 cycles
 SCF Done:  E(RB3LYP) =  -458.493852193     A.U. after    9 cycles
 SCF Done:  E(RB3LYP) =  -458.493858137     A.U. after    8 cycles
 SCF Done:  E(RB3LYP) =  -458.493864467     A.U. after    9 cycles
 SCF Done:  E(RB3LYP) =  -458.493866552     A.U. after    8 cycles
 SCF Done:  E(RB3LYP) =  -458.493866949     A.U. after    6 cycles
 SCF Done:  E(RB3LYP) =  -458.493867071     A.U. after    6 cycles
 Optimization completed.
    -- Stationary point found.
 Normal termination of Gaussian 16 at Tue Jun  1 01:30:13 2021.

 ----------------------------------------------------------------------
 #N Geom=AllCheck Guess=TCheck SCRF=Check GenChk RB3LYP/6-31G(2df,p) Fr
 eq
 ----------------------------------------------------------------------

 Structure from the checkpoint file:  "CCpCCNCNpNCN.chk"
 -------------------
 Title Card Required
 -------------------
 Charge =  0 Multiplicity = 1

                         Standard orientation:
 ---------------------------------------------------------------------
 Center     Atomic      Atomic             Coordinates (Angstroms)
 Number     Number       Type             X           Y           Z
 ---------------------------------------------------------------------
      1          6           0        1.245177    2.291758   -0.167075
      2          6           0        1.254554    0.811467    0.224633
      3          6           0        0.031890    0.062183   -0.337147
      4          6           0       -1.298733    0.441281    0.315721
      5          7           0       -2.389555   -0.351495   -0.236132
      6          6           0       -3.686893   -0.067281    0.346639
      7          7           0       -4.660029   -0.967520   -0.258572
      8          7           0        2.491329    0.205202   -0.280666
      9          6           0        2.940962   -0.986123    0.418046
     10          7           0        4.223763   -1.377932   -0.154986
     11          1           0        0.337084    2.793998    0.175184
     12          1           0        1.308185    2.395473   -1.255646
     13          1           0        2.098764    2.817560    0.275230
     14          1           0        1.212206    0.752269    1.330410
     15          1           0        0.184387   -1.015767   -0.200095
     16          1           0       -0.027476    0.228898   -1.418391
     17          1           0       -1.528725    1.497578    0.125962
     18          1           0       -1.210176    0.340030    1.416119
     19          1           0       -2.202679   -1.343445   -0.118545
     20          1           0       -3.888015    1.007292    0.184006
     21          1           0       -3.724530   -0.230667    1.441413
     22          1           0       -4.756893   -0.740195   -1.243900
     23          1           0       -5.570250   -0.841238    0.172027
     24          1           0        3.250489    0.878311   -0.237915
     25          1           0        2.153677   -1.753578    0.331637
     26          1           0        3.100350   -0.820577    1.501377
     27          1           0        4.082005   -1.668183   -1.118284
     28          1           0        4.601292   -2.175256    0.346993
 ---------------------------------------------------------------------

 SCF Done:  E(RB3LYP) =  -458.493867071     A.U. after    1 cycles

 The electronic state is 1-A.
 Alpha  occ. eigenvalues --  -14.30493 -14.30432 -14.30278 -14.30144 -10.22276
 Alpha  occ. eigenvalues --  -10.22276 -10.20629 -10.19810 -10.17164 -10.16960
 Alpha  occ. eigenvalues --   -0.91650  -0.91343  -0.85287  -0.84489  -0.75893
 Alpha  occ. eigenvalues --   -0.70692  -0.63770  -0.62382  -0.60664  -0.56236
 Alpha  occ. eigenvalues --   -0.50033  -0.49468  -0.48982  -0.46690  -0.45625
 Alpha  occ. eigenvalues --   -0.43464  -0.43180  -0.40805  -0.40185  -0.39398
 Alpha  occ. eigenvalues --   -0.38905  -0.37716  -0.36553  -0.35305  -0.33434
 Alpha  occ. eigenvalues --   -0.32858  -0.31885  -0.23828  -0.23742  -0.21975
 Alpha  occ. eigenvalues --   -0.21264
 Alpha virt. eigenvalues --    0.08647   0.09060   0.09251   0.10389   0.11478
 Alpha virt. eigenvalues --    0.12670   0.13497   0.14984   0.15319   0.15497
 Alpha virt. eigenvalues --    0.16361   0.17109   0.17455   0.18529   0.19178

 Mulliken charges:
               1
     1  C   -0.410706
     2  C    0.061831
     3  C   -0.176972
     4  C   -0.131409
     5  N   -0.280848
     6  C   -0.078320
     7  N   -0.513925
     8  N   -0.290971
     9  C   -0.088332
    10  N   -0.514225
    11  H    0.120517
    12  H    0.125068
    13  H    0.109138
    14  H    0.049957
    15  H    0.086881
    16  H    0.107918
    17  H    0.099748
    18  H    0.071494
    19  H    0.214183
    20  H    0.080529
    21  H    0.075521
    22  H    0.228115
    23  H    0.224595
    24  H    0.214346
    25  H    0.085692
    26  H    0.076677
    27  H    0.228647
    28  H    0.224852
 Sum of Mulliken charges =  -0.00000

 Dipole moment (field-independent basis, Debye):
    X=             -0.6991    Y=              0.0391    Z=              0.9551  Tot=              1.1843
 Quadrupole moment (field-independent basis, Debye-Ang):
   XX=            -60.8784   YY=            -61.3558   ZZ=            -64.3979
   XY=             -6.9672   XZ=              0.7226   YZ=             -0.1720

  Exact polarizability: 122.598  -1.905  92.979  -0.508   0.152  83.685
 Approx polarizability: 139.600  -1.211 130.086  -1.180   0.153 129.855

                      1                      2                      3
                      A                      A                      A
 Frequencies --     35.8249                46.7330                62.2177
 Red. masses --      1.8265                 3.6714                 2.4498
 Frc consts  --      0.0014                 0.0047                 0.0056
 IR Inten    --      1.9811                 0.5157                 1.6554

                      4                      5                      6
                      A                      A                      A
 Frequencies --     87.7390               120.5370               126.2326
 Red. masses --      2.6167                 2.2863                 2.8554
 Frc consts  --      0.0119                 0.0196                 0.0268
 IR Inten    --      2.0527                 1.1582                 1.9559

                      7                      8                      9
                      A                      A                      A
 Frequencies --    146.3193               184.0025               239.6581
 Red. masses --      2.2885                 1.8731                 2.1416
 Frc consts  --      0.0289                 0.0374                 0.0725
 IR Inten    --      6.2719                 1.9021                 4.0982

                     10                     11                     12
                      A                      A                      A
 Frequencies --    250.0168               281.8002               284.1162
 Red. masses --      1.2871                 2.6017                 1.2357
 Frc consts  --      0.0474                 0.1217                 0.0588
 IR Inten    --     12.3820                11.6389                40.4635

                     13                     14                     15
                      A                      A                      A
 Frequencies --    299.2212               363.4510               448.9629
 Red. masses --      1.8100                 2.5728                 2.6751
 Frc consts  --      0.0955                 0.2002                 0.3177
 IR Inten    --     15.9001                 2.3547                 5.3330

                     16                     17                     18
                      A                      A                      A
 Frequencies --    477.4650               509.5854               574.3322
 Red. masses --      3.2076                 2.6092                 3.1875
 Frc consts  --      0.4308                 0.3992                 0.6195
 IR Inten    --     14.5788                 2.3077                 8.2074

                     19                     20                     21
                      A                      A                      A
 Frequencies --    778.7905               788.9911               807.3518
 Red. masses --      1.2979                 1.2980                 1.2909
 Frc consts  --      0.4638                 0.4761                 0.4958
 IR Inten    --      3.0652                56.9576                57.7295

                     22                     23                     24
                      A                      A                      A
 Frequencies --    860.3743               866.2716               878.9717
 Red. masses --      1.4214                 1.2693                 1.5479
 Frc consts  --      0.6199                 0.5612                 0.7046
 IR Inten    --    155.4835                97.5664                63.6283

                     25                     26                     27
                      A                      A                      A
 Frequencies --    945.0965               966.1179               978.5312
 Red. masses --      1.5781                 1.2934                 1.5437
 Frc consts  --      0.8305                 0.7113                 0.8709
 IR Inten    --      0.8398                 2.0400                 2.5401

                     28                     29                     30
                      A                      A                      A
 Frequencies --   1025.3121              1038.9803              1059.7342
 Red. masses --      1.7411                 2.9190                 2.1070
 Frc consts  --      1.0784                 1.8565                 1.3942
 IR Inten    --      5.5634                 5.8972                 5.9207

                     31                     32                     33
                      A                      A                      A
 Frequencies --   1082.5041              1088.7345              1121.2837
 Red. masses --      2.4990                 2.6703                 2.1036
 Frc consts  --      1.7253                 1.8649                 1.5583
 IR Inten    --      3.7038                 4.0336                 4.7180

                     34                     35                     36
                      A                      A                      A
 Frequencies --   1151.5250              1171.3720              1193.6857
 Red. masses --      2.8585                 3.1128                 1.9330
 Frc consts  --      2.2332                 2.5165                 1.6228
 IR Inten    --    112.2862                34.2255                51.4964

                     37                     38                     39
                      A                      A                      A
 Frequencies --   1203.3676              1204.3337              1225.5035
 Red. masses --      1.8230                 1.3580                 1.3691
 Frc consts  --      1.5554                 1.1605                 1.2114
 IR Inten    --     10.3900                 9.2339                 9.3329

                     40                     41                     42
                      A                      A                      A
 Frequencies --   1259.8930              1282.8870              1310.2894
 Red. masses --      1.4365                 1.2726                 1.1916
 Frc consts  --      1.3434                 1.2340                 1.2054
 IR Inten    --      4.5649                 5.1645                 2.1527

                     43                     44                     45
                      A                      A                      A
 Frequencies --   1323.6923              1338.3371              1366.5465
 Red. masses --      1.1621                 1.2815                 1.3035
 Frc consts  --      1.1996                 1.3524                 1.4342
 IR Inten    --      4.3794                 2.8571                11.2889

                     46                     47                     48
                      A                      A                      A
 Frequencies --   1382.2438              1399.0418              1410.0072
 Red. masses --      1.3048                 1.4019                 1.2999
 Frc consts  --      1.4688                 1.6167                 1.5227
 IR Inten    --      2.7420                42.6363                23.7282

                     49                     50                     51
                      A                      A                      A
 Frequencies --   1434.5795              1444.6043              1482.3176
 Red. masses --      1.3464                 1.3712                 1.0821
 Frc consts  --      1.6326                 1.6860                 1.4009
 IR Inten    --      4.3275                 2.0433                 3.1667

                     52                     53                     54
                      A                      A                      A
 Frequencies --   1485.6834              1489.7397              1503.6004
 Red. masses --      1.1579                 1.2517                 1.0974
 Frc consts  --      1.5059                 1.6367                 1.4618
 IR Inten    --     46.9597                48.1220                 8.6811

                     55                     56                     57
                      A                      A                      A
 Frequencies --   1507.8461              1519.4630              1539.7985
 Red. masses --      1.1493                 1.0927                 1.0870
 Frc consts  --      1.5396                 1.4864                 1.5185
 IR Inten    --     28.7014                 0.8741                 1.5956

                     58                     59                     60
                      A                      A                      A
 Frequencies --   1540.5863              1641.1132              1641.7911
 Red. masses --      1.0873                 1.0998                 1.1003
 Frc consts  --      1.5204                 1.7452                 1.7475
 IR Inten    --      1.2120                30.6884                29.0723

                     61                     62                     63
                      A                      A                      A
 Frequencies --   2889.4213              2900.2487              2909.3540
 Red. masses --      1.0775                 1.0736                 1.0679
 Frc consts  --      5.3000                 5.3209                 5.3257
 IR Inten    --     13.4747                31.5371                33.4138

                     64                     65                     66
                      A                      A                      A
 Frequencies --   2911.1965              2933.8267              2956.3939
 Red. masses --      1.0707                 1.0927                 1.0871
 Frc consts  --      5.3465                 5.5415                 5.5982
 IR Inten    --    245.8773                79.5367                79.7914

                     67                     68                     69
                      A                      A                      A
 Frequencies --   3023.8202              3032.4385              3035.6993
 Red. masses --      1.0678                 1.0413                 1.0729
 Frc consts  --      5.7524                 5.6415                 5.8254
 IR Inten    --      7.9782                 5.6891                63.0652

                     70                     71                     72
                      A                      A                      A
 Frequencies --   3076.5655              3096.1872              3120.7269
 Red. masses --      1.1004                 1.1006                 1.0996
 Frc consts  --      6.1364                 6.2163                 6.3093
 IR Inten    --     36.5126                33.5726                27.8372

                     73                     74                     75
                      A                      A                      A
 Frequencies --   3493.1224              3495.1378              3506.1125
 Red. masses --      1.0492                 1.0492                 1.0731
 Frc consts  --      7.5430                 7.5517                 7.7723
 IR Inten    --      0.3131                 0.3716                 0.3866

                     76                     77                     78
                      A                      A                      A
 Frequencies --   3513.1889              3579.0528              3581.4809
 Red. masses --      1.0735                 1.0923                 1.0924
 Frc consts  --      7.8065                 8.2439                 8.2557
 IR Inten    --      0.0575                 0.3287                 0.3297

 - Thermochemistry -
 -------------------
 Temperature   298.150 Kelvin.  Pressure   1.00000 Atm.
 Atom     1 has atomic number  6 and mass  12.00000

 Molecular mass:   146.15315 amu.
 Principal axes and moments of inertia in atomic units:
                           1         2         3
     Eigenvalues --   693.848144405.647264918.70295
           X            0.99999  -0.00399  -0.00045
           Y            0.00399   0.99999  -0.00202
           Z            0.00046   0.00201   1.00000
 This molecule is an asymmetric top.
 Rotational symmetry number  1.
 Warning -- assumption of classical behavior for rotation
           may cause significant error
 Rotational temperatures (Kelvin)      0.12483     0.01966     0.01761
 Rotational constants (GHZ):           2.60106     0.40964     0.36691
 Zero-point vibrational energy     677882.4 (Joules/Mol)
                                  162.01778 (Kcal/Mol)
 Warning -- explicit consideration of  18 degrees of freedom as
           vibrations may cause significant error
 Vibrational temperatures:     51.54    67.24    89.52   126.24   173.43
          (Kelvin)            181.62   210.52   264.74   344.81   359.72
                              405.45   408.78   430.51   522.92   645.96
                              686.97   733.18   826.34  1120.51  1135.18
                             1161.60  1237.89  1246.37  1264.64  1359.78
                             1390.03  1407.89  1475.20  1494.86  1524.72
                             1557.48  1566.45  1613.28  1656.79  1685.34
                             1717.45  1731.38  1732.77  1763.23  1812.70
                             1845.79  1885.21  1904.50  1925.57  1966.16
                             1988.74  2012.91  2028.69  2064.04  2078.46
                             2132.72  2137.57  2143.40  2163.35  2169.45
                             2186.17  2215.43  2216.56  2361.20  2362.17
                             4157.23  4172.81  4185.91  4188.56  4221.12
                             4253.59  4350.60  4363.00  4367.69  4426.49
                             4454.72  4490.03  5025.82  5028.72  5044.51
                             5054.70  5149.46  5152.95

 Zero-point correction=                           0.258192 (Hartree/Particle)
 Thermal correction to Energy=                    0.271423
 Thermal correction to Enthalpy=                  0.272368
 Thermal correction to Gibbs Free Energy=         0.217358
 Sum of electronic and zero-point Energies=           -458.235675
 Sum of electronic and thermal Energies=              -458.222444
 Sum of electronic and thermal Enthalpies=            -458.221499
 Sum of electronic and thermal Free Energies=         -458.276509

                     E (Thermal)             CV                S
                      KCal/Mol        Cal/Mol-Kelvin    Cal/Mol-Kelvin
 Total                  170.321             46.673            115.778
 Electronic               0.000              0.000              0.000
 Translational            0.889              2.981             40.849
 Rotational               0.889              2.981             31.087
 Vibrational            168.543             40.711             43.842
 Vibration     1          0.594              1.982              5.478
 Vibration     2          0.595              1.979              4.951
 Vibration     3          0.597              1.972              4.386
 Vibration     4          0.601              1.958              3.710
 Vibration     5          0.609              1.932              3.092
 Vibration     6          0.611              1.927              3.003
 Vibration     7          0.617              1.907              2.720
 Vibration     8          0.631              1.862              2.287
 Vibration     9          0.657              1.780              1.805
 Vibration    10          0.663              1.763              1.730
 Vibration    11          0.681              1.707              1.523
 Vibration    12          0.683              1.703              1.509
 Vibration    13          0.692              1.675              1.421
 Vibration    14          0.737              1.548              1.107
 Vibration    15          0.808              1.363              0.799
 Vibration    16          0.834              1.300              0.717
 Vibration    17          0.865              1.229              0.635
 Vibration    18          0.931              1.087              0.496

                           ! Non-Optimized Parameters !
 Normal termination of Gaussian 16 at Tue Jun  1 02:15:58 2021.
