 Gaussian 16, Revision A.03,
 Gaussian 16:  ES64L-G16RevA.03 25-Dec-2016

 -----------------------------
 # opt freq b3lyp/6-31g(2df,p)
 -----------------------------

 -------------------
 Title Card Required
 -------------------
 Symbolic Z-matrix:
 Charge =  0 Multiplicity = 1

 SCF Done:  E(RB3LYP) =  -385.881119841     A.U. after   13 cycles
 SCF Done:  E(RB3LYP) =  -385.885586534     A.U. after   11 cycles
 SCF Done:  E(RB3LYP) =  -385.886176002     A.U. after   10 cycles
 SCF Done:  E(RB3LYP) =  -385.886473958     A.U. after   10 cycles
 SCF Done:  E(RB3LYP) =  -385.886999886     A.U. after   10 cycles
 SCF Done:  E(RB3LYP) =  -385.883934362     A.U. after   12 cycles
 SCF Done:  E(RB3LYP) =  -385.887562301     A.U. after   10 cycles
 SCF Done:  E(RB3LYP) =  -385.888255757     A.U. after   11 cycles
 SCF Done:  E(RB3LYP) =  -385.889216071     A.U. after   11 cycles
 SCF Done:  E(RB3LYP) =  -385.890543819     A.U. after   11 cycles
 SCF Done:  E(RB3LYP) =  -385.891893613     A.U. after   13 cycles
 SCF Done:  E(RB3LYP) =  -385.892301267     A.U. after   10 cycles
 SCF Done:  E(RB3LYP) =  -385.892571715     A.U. after   10 cycles
 SCF Done:  E(RB3LYP) =  -385.892665888     A.U. after   10 cycles
 SCF Done:  E(RB3LYP) =  -385.892675034     A.U. after    9 cycles
 SCF Done:  E(RB3LYP) =  -385.892678092     A.U. after    9 cycles
 SCF Done:  E(RB3LYP) =  -385.892678957     A.U. after    7 cycles
 SCF Done:  E(RB3LYP) =  -385.892679040     A.U. after    6 cycles
 SCF Done:  E(RB3LYP) =  -385.892679063     A.U. after    6 cycles
 Optimization completed.
    -- Stationary point found.
 Normal termination of Gaussian 16 at Mon May 31 19:06:50 2021.

 ----------------------------------------------------------------------
 #N Geom=AllCheck Guess=TCheck SCRF=Check GenChk RB3LYP/6-31G(2df,p) Fr
 eq
 ----------------------------------------------------------------------

 Structure from the checkpoint file:  "CCpCNpCCCdCN.chk"
 -------------------
 Title Card Required
 -------------------
 Charge =  0 Multiplicity = 1

                         Standard orientation:
 ---------------------------------------------------------------------
 Center     Atomic      Atomic             Coordinates (Angstroms)
 Number     Number       Type             X           Y           Z
 ---------------------------------------------------------------------
      1          6           0       -2.578079    1.582968   -0.299959
      2          6           0       -1.684445    0.445252    0.211531
      3          6           0       -2.130440   -0.905255   -0.373405
      4          7           0       -3.493128   -1.247489    0.056108
      5          6           0       -0.200271    0.736135   -0.079763
      6          6           0        0.810463   -0.140014    0.687767
      7          6           0        2.237630    0.269632    0.457744
      8          6           0        3.157198   -0.499135   -0.132019
      9          7           0        4.459813   -0.128154   -0.480862
     10          1           0       -3.632502    1.342415   -0.147798
     11          1           0       -2.420515    1.744034   -1.373735
     12          1           0       -2.352672    2.524187    0.212311
     13          1           0       -1.804665    0.383309    1.305338
     14          1           0       -1.390735   -1.681024   -0.117685
     15          1           0       -2.136693   -0.829262   -1.469098
     16          1           0       -3.491007   -1.456811    1.050962
     17          1           0       -3.796577   -2.098956   -0.406536
     18          1           0        0.001188    1.786972    0.166617
     19          1           0       -0.011848    0.642677   -1.158175
     20          1           0        0.689639   -1.193125    0.408007
     21          1           0        0.569802   -0.078753    1.760398
     22          1           0        2.512800    1.277656    0.770631
     23          1           0        2.898312   -1.506508   -0.453378
     24          1           0        4.787957    0.707176   -0.013606
     25          1           0        5.138379   -0.871988   -0.392342
 ---------------------------------------------------------------------

 SCF Done:  E(RB3LYP) =  -385.892679063     A.U. after    1 cycles

 The electronic state is 1-A.
 Alpha  occ. eigenvalues --  -14.32709 -14.30104 -10.20097 -10.19383 -10.17420
 Alpha  occ. eigenvalues --  -10.17269 -10.16668 -10.15569 -10.15498  -0.89726
 Alpha  occ. eigenvalues --   -0.87131  -0.79368  -0.75223  -0.68777  -0.65033
 Alpha  occ. eigenvalues --   -0.61020  -0.56002  -0.55107  -0.49576  -0.47507
 Alpha  occ. eigenvalues --   -0.46972  -0.44731  -0.44110  -0.41250  -0.39598
 Alpha  occ. eigenvalues --   -0.38951  -0.37008  -0.35718  -0.35340  -0.33450
 Alpha  occ. eigenvalues --   -0.32120  -0.31318  -0.30958  -0.30829  -0.22785
 Alpha  occ. eigenvalues --   -0.19357
 Alpha virt. eigenvalues --    0.05208   0.08615   0.09035   0.10614   0.10838
 Alpha virt. eigenvalues --    0.12037   0.13822   0.15178   0.16521   0.16892
 Alpha virt. eigenvalues --    0.17140   0.18614   0.18719   0.19446   0.20148

 Mulliken charges:
               1
     1  C   -0.393233
     2  C    0.051846
     3  C   -0.148980
     4  N   -0.507613
     5  C   -0.171443
     6  C   -0.242381
     7  C   -0.094411
     8  C    0.017303
     9  N   -0.510995
    10  H    0.130619
    11  H    0.104502
    12  H    0.100483
    13  H    0.058085
    14  H    0.077496
    15  H    0.097341
    16  H    0.220761
    17  H    0.223452
    18  H    0.085951
    19  H    0.092136
    20  H    0.090766
    21  H    0.089919
    22  H    0.057963
    23  H    0.087275
    24  H    0.240520
    25  H    0.242638
 Sum of Mulliken charges =  -0.00000

 Dipole moment (field-independent basis, Debye):
    X=              1.7780    Y=             -1.4357    Z=              0.9494  Tot=              2.4746
 Quadrupole moment (field-independent basis, Debye-Ang):
   XX=            -52.4151   YY=            -53.2143   ZZ=            -59.0627
   XY=              2.6849   XZ=              1.5228   YZ=              1.3704

  Exact polarizability: 125.590  -3.058  87.295  -7.508   4.760  73.387
 Approx polarizability: 149.678  -7.277 126.542 -15.441  10.726 116.989

                      1                      2                      3
                      A                      A                      A
 Frequencies --     37.5858                58.2044                96.3666
 Red. masses --      2.9040                 3.1227                 2.3469
 Frc consts  --      0.0024                 0.0062                 0.0128
 IR Inten    --      0.4025                 0.0538                 3.0239

                      4                      5                      6
                      A                      A                      A
 Frequencies --    104.2932               159.0798               207.5652
 Red. masses --      2.4038                 1.7854                 1.7805
 Frc consts  --      0.0154                 0.0266                 0.0452
 IR Inten    --      2.3253                 4.1643                 7.3467

                      7                      8                      9
                      A                      A                      A
 Frequencies --    228.2151               251.1342               266.6994
 Red. masses --      1.0645                 1.5137                 2.2296
 Frc consts  --      0.0327                 0.0562                 0.0934
 IR Inten    --     20.4555                 2.5180                 9.9268

                     10                     11                     12
                      A                      A                      A
 Frequencies --    291.0522               323.3952               354.1345
 Red. masses --      2.4129                 3.6386                 1.3883
 Frc consts  --      0.1204                 0.2242                 0.1026
 IR Inten    --      5.4633                 8.5475                36.8285

                     13                     14                     15
                      A                      A                      A
 Frequencies --    388.3533               449.0327               510.1874
 Red. masses --      1.9518                 2.2772                 2.9718
 Frc consts  --      0.1734                 0.2705                 0.4558
 IR Inten    --     16.4660                 5.5181                 7.3497

                     16                     17                     18
                      A                      A                      A
 Frequencies --    571.0743               684.9620               760.4553
 Red. masses --      2.7145                 1.3258                 1.3016
 Frc consts  --      0.5216                 0.3665                 0.4435
 IR Inten    --      5.4127               282.2923                 4.9655

                     19                     20                     21
                      A                      A                      A
 Frequencies --    816.0989               830.0938               861.7290
 Red. masses --      1.7578                 1.8709                 1.4547
 Frc consts  --      0.6898                 0.7596                 0.6364
 IR Inten    --     40.0026                26.1872                54.0553

                     22                     23                     24
                      A                      A                      A
 Frequencies --    925.1447               937.9512               957.3126
 Red. masses --      1.5430                 1.4937                 1.8594
 Frc consts  --      0.7781                 0.7743                 1.0040
 IR Inten    --     23.4981                 9.2445                 2.5414

                     25                     26                     27
                      A                      A                      A
 Frequencies --    984.0603              1010.3139              1039.8572
 Red. masses --      1.1375                 2.4763                 2.1365
 Frc consts  --      0.6490                 1.4892                 1.3611
 IR Inten    --     29.1255                 3.9406                 0.9059

                     28                     29                     30
                      A                      A                      A
 Frequencies --   1066.2652              1079.1688              1109.1976
 Red. masses --      1.3190                 2.7879                 1.2209
 Frc consts  --      0.8835                 1.9130                 0.8850
 IR Inten    --      1.1554                15.1754                 7.4872

                     31                     32                     33
                      A                      A                      A
 Frequencies --   1141.4541              1145.3583              1169.2502
 Red. masses --      1.8554                 2.2787                 2.0092
 Frc consts  --      1.4243                 1.7613                 1.6184
 IR Inten    --      3.8796                 5.5357                 8.9396

                     34                     35                     36
                      A                      A                      A
 Frequencies --   1233.6741              1263.8860              1282.2982
 Red. masses --      1.8906                 1.5219                 1.3609
 Frc consts  --      1.6953                 1.4324                 1.3184
 IR Inten    --     42.0958                22.4066                 4.9265

                     37                     38                     39
                      A                      A                      A
 Frequencies --   1314.3310              1322.8128              1336.6037
 Red. masses --      1.1476                 1.1694                 1.2910
 Frc consts  --      1.1680                 1.2056                 1.3588
 IR Inten    --      4.1410                 1.6679                 1.5739

                     40                     41                     42
                      A                      A                      A
 Frequencies --   1350.0040              1365.9051              1381.7502
 Red. masses --      1.2979                 1.3338                 1.3889
 Frc consts  --      1.3937                 1.4662                 1.5624
 IR Inten    --      1.1047                 2.7857                 0.7330

                     43                     44                     45
                      A                      A                      A
 Frequencies --   1396.9802              1400.4940              1427.5197
 Red. masses --      1.3873                 1.3362                 1.3861
 Frc consts  --      1.5951                 1.5442                 1.6642
 IR Inten    --      4.1383                 0.8404                 9.9768

                     46                     47                     48
                      A                      A                      A
 Frequencies --   1475.5523              1490.0171              1495.7613
 Red. masses --      1.0844                 1.0651                 1.0870
 Frc consts  --      1.3911                 1.3932                 1.4329
 IR Inten    --      0.7390                 3.4045                 3.7612

                     49                     50                     51
                      A                      A                      A
 Frequencies --   1508.1815              1509.4972              1650.0452
 Red. masses --      1.0593                 1.0773                 1.1317
 Frc consts  --      1.4197                 1.4463                 1.8153
 IR Inten    --      6.5297                 0.2304                24.3415

                     52                     53                     54
                      A                      A                      A
 Frequencies --   1656.5927              1749.2237              2962.5357
 Red. masses --      1.0887                 5.2278                 1.0709
 Frc consts  --      1.7604                 9.4246                 5.5377
 IR Inten    --     22.6114               108.1351                80.7511

                     55                     56                     57
                      A                      A                      A
 Frequencies --   2971.3204              2984.0236              3010.0185
 Red. masses --      1.0779                 1.0683                 1.0596
 Frc consts  --      5.6068                 5.6049                 5.6562
 IR Inten    --     14.1193                39.5102                24.3177

                     58                     59                     60
                      A                      A                      A
 Frequencies --   3025.4546              3032.4879              3040.0763
 Red. masses --      1.0438                 1.0875                 1.0941
 Frc consts  --      5.6293                 5.8922                 5.9575
 IR Inten    --     21.2046                32.8557                35.5628

                     61                     62                     63
                      A                      A                      A
 Frequencies --   3060.2915              3087.4953              3115.2232
 Red. masses --      1.0978                 1.0990                 1.0880
 Frc consts  --      6.0576                 6.1727                 6.2211
 IR Inten    --     44.2982                45.5927                32.2791

                     64                     65                     66
                      A                      A                      A
 Frequencies --   3126.5882              3148.1880              3483.4061
 Red. masses --      1.0990                 1.0884                 1.0497
 Frc consts  --      6.3299                 6.3558                 7.5047
 IR Inten    --     17.9598                20.5870                 0.8866

                     67                     68                     69
                      A                      A                      A
 Frequencies --   3539.4547              3561.8637              3636.7019
 Red. masses --      1.0473                 1.0916                 1.0966
 Frc consts  --      7.7301                 8.1597                 8.5452
 IR Inten    --      7.2126                 0.1336                 6.2243

 - Thermochemistry -
 -------------------
 Temperature   298.150 Kelvin.  Pressure   1.00000 Atm.
 Atom     1 has atomic number  6 and mass  12.00000

 Molecular mass:   128.13135 amu.
 Principal axes and moments of inertia in atomic units:
                           1         2         3
     Eigenvalues --   480.583223428.859713710.67410
           X            1.00000  -0.00207   0.00222
           Y            0.00207   1.00000   0.00133
           Z           -0.00222  -0.00132   1.00000
 This molecule is an asymmetric top.
 Rotational symmetry number  1.
 Warning -- assumption of classical behavior for rotation
           may cause significant error
 Rotational temperatures (Kelvin)      0.18023     0.02526     0.02334
 Rotational constants (GHZ):           3.75531     0.52634     0.48636
 Zero-point vibrational energy     599396.7 (Joules/Mol)
                                  143.25925 (Kcal/Mol)
 Warning -- explicit consideration of  16 degrees of freedom as
           vibrations may cause significant error
 Vibrational temperatures:     54.08    83.74   138.65   150.05   228.88
          (Kelvin)            298.64   328.35   361.33   383.72   418.76
                              465.29   509.52   558.75   646.06   734.05
                              821.65   985.51  1094.13  1174.18  1194.32
                             1239.84  1331.08  1349.50  1377.36  1415.84
                             1453.62  1496.12  1534.12  1552.68  1595.89
                             1642.30  1647.92  1682.29  1774.98  1818.45
                             1844.94  1891.03  1903.23  1923.07  1942.35
                             1965.23  1988.03  2009.94  2015.00  2053.88
                             2122.99  2143.80  2152.07  2169.94  2171.83
                             2374.05  2383.47  2516.74  4262.43  4275.07
                             4293.34  4330.75  4352.95  4363.07  4373.99
                             4403.08  4442.22  4482.11  4498.46  4529.54
                             5011.84  5092.49  5124.73  5232.40

 Zero-point correction=                           0.228298 (Hartree/Particle)
 Thermal correction to Energy=                    0.240030
 Thermal correction to Enthalpy=                  0.240974
 Thermal correction to Gibbs Free Energy=         0.190324
 Sum of electronic and zero-point Energies=           -385.664381
 Sum of electronic and thermal Energies=              -385.652649
 Sum of electronic and thermal Enthalpies=            -385.651705
 Sum of electronic and thermal Free Energies=         -385.702355

                     E (Thermal)             CV                S
                      KCal/Mol        Cal/Mol-Kelvin    Cal/Mol-Kelvin
 Total                  150.621             42.371            106.603
 Electronic               0.000              0.000              0.000
 Translational            0.889              2.981             40.457
 Rotational               0.889              2.981             30.193
 Vibrational            148.844             36.410             35.953
 Vibration     1          0.594              1.982              5.382
 Vibration     2          0.596              1.974              4.517
 Vibration     3          0.603              1.952              3.527
 Vibration     4          0.605              1.946              3.372
 Vibration     5          0.621              1.892              2.561
 Vibration     6          0.641              1.829              2.065
 Vibration     7          0.651              1.798              1.893
 Vibration     8          0.663              1.761              1.723
 Vibration     9          0.672              1.734              1.618
 Vibration    10          0.687              1.690              1.468
 Vibration    11          0.708              1.629              1.293
 Vibration    12          0.730              1.567              1.148
 Vibration    13          0.757              1.495              1.006
 Vibration    14          0.808              1.363              0.799
 Vibration    15          0.865              1.227              0.633
 Vibration    16          0.927              1.094              0.502

                           ! Non-Optimized Parameters !
 Normal termination of Gaussian 16 at Mon May 31 19:39:30 2021.
