 Gaussian 16, Revision A.03,
 Gaussian 16:  ES64L-G16RevA.03 25-Dec-2016

 -----------------------------
 # opt freq b3lyp/6-31g(2df,p)
 -----------------------------

 -------------------
 Title Card Required
 -------------------
 Symbolic Z-matrix:
 Charge =  0 Multiplicity = 1

 SCF Done:  E(RB3LYP) =  -347.793196189     A.U. after   12 cycles
 SCF Done:  E(RB3LYP) =  -347.796450184     A.U. after   10 cycles
 SCF Done:  E(RB3LYP) =  -347.796968826     A.U. after   10 cycles
 SCF Done:  E(RB3LYP) =  -347.797061183     A.U. after    9 cycles
 SCF Done:  E(RB3LYP) =  -347.797086319     A.U. after    9 cycles
 SCF Done:  E(RB3LYP) =  -347.797098730     A.U. after    9 cycles
 SCF Done:  E(RB3LYP) =  -347.797101774     A.U. after    8 cycles
 SCF Done:  E(RB3LYP) =  -347.797102310     A.U. after    7 cycles
 SCF Done:  E(RB3LYP) =  -347.797102441     A.U. after    7 cycles
 SCF Done:  E(RB3LYP) =  -347.797102451     A.U. after    6 cycles
 SCF Done:  E(RB3LYP) =  -347.797102443     A.U. after    6 cycles
 Optimization completed.
    -- Stationary point found.
 Normal termination of Gaussian 16 at Mon May 31 21:44:57 2021.

 ----------------------------------------------------------------------
 #N Geom=AllCheck Guess=TCheck SCRF=Check GenChk RB3LYP/6-31G(2df,p) Fr
 eq
 ----------------------------------------------------------------------

 Structure from the checkpoint file:  "CCpCppCpNCCN.chk"
 -------------------
 Title Card Required
 -------------------
 Charge =  0 Multiplicity = 1

                         Standard orientation:
 ---------------------------------------------------------------------
 Center     Atomic      Atomic             Coordinates (Angstroms)
 Number     Number       Type             X           Y           Z
 ---------------------------------------------------------------------
      1          6           0       -2.403132    1.151798    0.197075
      2          6           0       -1.403837    0.001414   -0.003964
      3          6           0       -1.643342   -1.077751    1.075081
      4          6           0       -1.610525   -0.604954   -1.402441
      5          7           0       -0.060698    0.611314    0.069112
      6          6           0        1.103286   -0.263090   -0.008564
      7          6           0        2.385399    0.569773   -0.001799
      8          7           0        3.557994   -0.305084   -0.082764
      9          1           0       -3.434446    0.794454    0.119541
     10          1           0       -2.243629    1.931100   -0.553384
     11          1           0       -2.283428    1.605699    1.188323
     12          1           0       -2.664905   -1.469008    1.019685
     13          1           0       -1.498615   -0.662652    2.079243
     14          1           0       -0.960312   -1.924392    0.957562
     15          1           0       -2.645239   -0.941273   -1.521762
     16          1           0       -0.964576   -1.471271   -1.572606
     17          1           0       -1.394781    0.139134   -2.174499
     18          1           0       -0.004194    1.154900    0.925963
     19          1           0        1.071831   -0.831988   -0.942306
     20          1           0        1.161835   -1.007198    0.808776
     21          1           0        2.378853    1.229855    0.886044
     22          1           0        2.380567    1.227092   -0.877575
     23          1           0        3.651216   -0.835443    0.779192
     24          1           0        4.401656    0.254250   -0.158960
 ---------------------------------------------------------------------

 SCF Done:  E(RB3LYP) =  -347.797102443     A.U. after    1 cycles

 The electronic state is 1-A.
 Alpha  occ. eigenvalues --  -14.30358 -14.30122 -10.21240 -10.19800 -10.19300
 Alpha  occ. eigenvalues --  -10.16673 -10.16617 -10.16412  -0.90041  -0.86913
 Alpha  occ. eigenvalues --   -0.77575  -0.69275  -0.67965  -0.67700  -0.59197
 Alpha  occ. eigenvalues --   -0.54309  -0.49197  -0.46689  -0.45004  -0.44243
 Alpha  occ. eigenvalues --   -0.42854  -0.42157  -0.40061  -0.38363  -0.36908
 Alpha  occ. eigenvalues --   -0.36454  -0.35899  -0.34159  -0.33376  -0.32217
 Alpha  occ. eigenvalues --   -0.31644  -0.23282  -0.21136
 Alpha virt. eigenvalues --    0.07489   0.08487   0.11514   0.12901   0.13174
 Alpha virt. eigenvalues --    0.13570   0.15118   0.15927   0.16060   0.17673
 Alpha virt. eigenvalues --    0.18789   0.19789   0.20062   0.20429   0.21122

 Mulliken charges:
               1
     1  C   -0.403638
     2  C    0.280923
     3  C   -0.401388
     4  C   -0.387332
     5  N   -0.311060
     6  C   -0.112911
     7  C   -0.156745
     8  N   -0.509024
     9  H    0.109156
    10  H    0.119460
    11  H    0.100516
    12  H    0.108476
    13  H    0.099354
    14  H    0.113795
    15  H    0.106823
    16  H    0.112362
    17  H    0.117667
    18  H    0.201717
    19  H    0.116610
    20  H    0.066825
    21  H    0.068191
    22  H    0.112458
    23  H    0.221888
    24  H    0.225875
 Sum of Mulliken charges =  -0.00000

 Dipole moment (field-independent basis, Debye):
    X=              0.1973    Y=              0.3154    Z=              1.5281  Tot=              1.5727
 Quadrupole moment (field-independent basis, Debye-Ang):
   XX=            -48.8627   YY=            -53.8184   ZZ=            -52.5009
   XY=              2.6873   XZ=              3.7324   YZ=             -0.0346

  Exact polarizability:  96.957  -0.857  75.891   0.153  -0.249  74.442
 Approx polarizability: 117.214  -0.777 110.916  -0.047   0.296 108.527

                      1                      2                      3
                      A                      A                      A
 Frequencies --     50.7168                72.3904               128.8392
 Red. masses --      1.7187                 2.9367                 2.9123
 Frc consts  --      0.0026                 0.0091                 0.0285
 IR Inten    --      3.9975                 0.2688                 1.5329

                      4                      5                      6
                      A                      A                      A
 Frequencies --    151.3362               219.2544               243.4601
 Red. masses --      2.0413                 1.1364                 1.1173
 Frc consts  --      0.0275                 0.0322                 0.0390
 IR Inten    --      0.7999                 0.2117                35.2368

                      7                      8                      9
                      A                      A                      A
 Frequencies --    258.5550               270.1225               299.4464
 Red. masses --      1.0702                 1.0698                 2.5138
 Frc consts  --      0.0422                 0.0460                 0.1328
 IR Inten    --      0.0417                 0.6630                 2.7470

                     10                     11                     12
                      A                      A                      A
 Frequencies --    313.0828               339.3183               383.9156
 Red. masses --      2.7904                 2.2564                 2.4830
 Frc consts  --      0.1612                 0.1531                 0.2156
 IR Inten    --      3.4754                 1.0395                 3.9525

                     13                     14                     15
                      A                      A                      A
 Frequencies --    444.1290               484.2526               513.7928
 Red. masses --      2.2308                 2.5409                 2.9089
 Frc consts  --      0.2593                 0.3511                 0.4524
 IR Inten    --      6.2839                 1.3615                 7.1966

                     16                     17                     18
                      A                      A                      A
 Frequencies --    737.2825               764.6611               812.6596
 Red. masses --      2.0531                 1.8821                 1.1456
 Frc consts  --      0.6575                 0.6484                 0.4458
 IR Inten    --     49.5487                24.6995                27.6711

                     19                     20                     21
                      A                      A                      A
 Frequencies --    873.8945               906.3389               919.9089
 Red. masses --      1.2880                 1.8007                 2.0200
 Frc consts  --      0.5795                 0.8715                 1.0072
 IR Inten    --    106.3715                 0.6158                 1.0702

                     22                     23                     24
                      A                      A                      A
 Frequencies --    940.1097               954.6350               986.6086
 Red. masses --      1.7275                 1.2087                 1.8401
 Frc consts  --      0.8995                 0.6490                 1.0553
 IR Inten    --      0.2830                 0.0711                 0.3594

                     25                     26                     27
                      A                      A                      A
 Frequencies --   1036.0621              1045.0759              1086.1914
 Red. masses --      1.4132                 1.4070                 2.8321
 Frc consts  --      0.8938                 0.9054                 1.9686
 IR Inten    --      3.5522                 1.6447                17.1278

                     28                     29                     30
                      A                      A                      A
 Frequencies --   1115.2477              1142.7576              1182.0261
 Red. masses --      2.0498                 2.6773                 1.3136
 Frc consts  --      1.5021                 2.0599                 1.0813
 IR Inten    --      7.3031                27.0933                 8.8252

                     31                     32                     33
                      A                      A                      A
 Frequencies --   1232.1726              1248.7437              1265.4020
 Red. masses --      2.4338                 2.1553                 2.2265
 Frc consts  --      2.1771                 1.9801                 2.1006
 IR Inten    --     36.7662                13.7090                33.3481

                     34                     35                     36
                      A                      A                      A
 Frequencies --   1302.1705              1325.2035              1369.3379
 Red. masses --      1.6729                 1.1140                 1.3080
 Frc consts  --      1.6713                 1.1526                 1.4450
 IR Inten    --      4.9080                 6.6632                 5.5238

                     37                     38                     39
                      A                      A                      A
 Frequencies --   1392.6562              1395.3511              1421.9060
 Red. masses --      1.2374                 1.2739                 1.2459
 Frc consts  --      1.4139                 1.4614                 1.4841
 IR Inten    --      8.6375                 6.9702                13.4874

                     40                     41                     42
                      A                      A                      A
 Frequencies --   1433.6719              1474.1291              1482.6994
 Red. masses --      1.4788                 1.0622                 1.0637
 Frc consts  --      1.7908                 1.3600                 1.3778
 IR Inten    --      4.8977                 2.9102                 3.6170

                     43                     44                     45
                      A                      A                      A
 Frequencies --   1484.8296              1487.6216              1501.1220
 Red. masses --      1.0961                 1.0481                 1.0601
 Frc consts  --      1.4238                 1.3666                 1.4074
 IR Inten    --      7.3306                 0.3186                 3.5323

                     46                     47                     48
                      A                      A                      A
 Frequencies --   1506.0848              1517.2518              1520.8514
 Red. masses --      1.0717                 1.0708                 1.1642
 Frc consts  --      1.4323                 1.4524                 1.5866
 IR Inten    --      0.6557                 2.1140                11.8427

                     49                     50                     51
                      A                      A                      A
 Frequencies --   1524.4387              1658.4111              2911.8633
 Red. masses --      1.0850                 1.0897                 1.0736
 Frc consts  --      1.4856                 1.7658                 5.3631
 IR Inten    --      5.8035                24.0571                90.7036

                     52                     53                     54
                      A                      A                      A
 Frequencies --   2920.5358              3023.0532              3027.5198
 Red. masses --      1.0719                 1.0366                 1.0366
 Frc consts  --      5.3870                 5.5816                 5.5980
 IR Inten    --     62.5231                20.0188                33.4309

                     55                     56                     57
                      A                      A                      A
 Frequencies --   3039.3724              3067.0664              3084.0888
 Red. masses --      1.0360                 1.0841                 1.0895
 Frc consts  --      5.6389                 6.0086                 6.1056
 IR Inten    --      7.1157                18.1274                27.0998

                     58                     59                     60
                      A                      A                      A
 Frequencies --   3088.2689              3094.6304              3102.1683
 Red. masses --      1.0997                 1.0981                 1.1004
 Frc consts  --      6.1797                 6.1958                 6.2392
 IR Inten    --      2.8579                61.8261                 5.3290

                     61                     62                     63
                      A                      A                      A
 Frequencies --   3107.6397              3114.2161              3119.0579
 Red. masses --      1.1000                 1.1022                 1.1018
 Frc consts  --      6.2588                 6.2978                 6.3153
 IR Inten    --     52.6511                12.2796                46.6605

                     64                     65                     66
                      A                      A                      A
 Frequencies --   3488.4431              3493.4831              3566.9339
 Red. masses --      1.0499                 1.0729                 1.0915
 Frc consts  --      7.5279                 7.7147                 8.1821
 IR Inten    --      0.7480                 1.4366                 0.0534

 - Thermochemistry -
 -------------------
 Temperature   298.150 Kelvin.  Pressure   1.00000 Atm.
 Atom     1 has atomic number  6 and mass  12.00000

 Molecular mass:   116.13135 amu.
 Principal axes and moments of inertia in atomic units:
                           1         2         3
     Eigenvalues --   461.336392022.696842052.82821
           X            0.99998   0.00366   0.00447
           Y           -0.00367   0.99999   0.00237
           Z           -0.00446  -0.00238   0.99999
 This molecule is an asymmetric top.
 Rotational symmetry number  1.
 Warning -- assumption of classical behavior for rotation
           may cause significant error
 Rotational temperatures (Kelvin)      0.18775     0.04282     0.04219
 Rotational constants (GHZ):           3.91199     0.89225     0.87915
 Zero-point vibrational energy     582990.9 (Joules/Mol)
                                  139.33817 (Kcal/Mol)
 Warning -- explicit consideration of  15 degrees of freedom as
           vibrations may cause significant error
 Vibrational temperatures:     72.97   104.15   185.37   217.74   315.46
          (Kelvin)            350.28   372.00   388.65   430.84   450.46
                              488.20   552.37   639.00   696.73   739.23
                             1060.79  1100.18  1169.24  1257.34  1304.02
                             1323.54  1352.61  1373.51  1419.51  1490.66
                             1503.63  1562.79  1604.59  1644.17  1700.67
                             1772.82  1796.66  1820.63  1873.53  1906.67
                             1970.17  2003.72  2007.60  2045.81  2062.73
                             2120.94  2133.27  2136.34  2140.36  2159.78
                             2166.92  2182.99  2188.17  2193.33  2386.08
                             4189.52  4202.00  4349.50  4355.93  4372.98
                             4412.82  4437.32  4443.33  4452.48  4463.33
                             4471.20  4480.66  4487.63  5019.09  5026.34
                             5132.02

 Zero-point correction=                           0.222050 (Hartree/Particle)
 Thermal correction to Energy=                    0.232881
 Thermal correction to Enthalpy=                  0.233825
 Thermal correction to Gibbs Free Energy=         0.186295
 Sum of electronic and zero-point Energies=           -347.575053
 Sum of electronic and thermal Energies=              -347.564221
 Sum of electronic and thermal Enthalpies=            -347.563277
 Sum of electronic and thermal Free Energies=         -347.610807

                     E (Thermal)             CV                S
                      KCal/Mol        Cal/Mol-Kelvin    Cal/Mol-Kelvin
 Total                  146.135             39.714            100.035
 Electronic               0.000              0.000              0.000
 Translational            0.889              2.981             40.164
 Rotational               0.889              2.981             29.039
 Vibrational            144.358             33.753             30.832
 Vibration     1          0.595              1.977              4.789
 Vibration     2          0.598              1.967              4.087
 Vibration     3          0.611              1.924              2.963
 Vibration     4          0.619              1.901              2.655
 Vibration     5          0.647              1.812              1.965
 Vibration     6          0.659              1.774              1.777
 Vibration     7          0.667              1.748              1.672
 Vibration     8          0.674              1.728              1.595
 Vibration     9          0.692              1.675              1.420
 Vibration    10          0.701              1.649              1.346
 Vibration    11          0.719              1.597              1.215
 Vibration    12          0.753              1.505              1.024
 Vibration    13          0.804              1.374              0.814
 Vibration    14          0.840              1.285              0.699
 Vibration    15          0.869              1.219              0.625

                           ! Non-Optimized Parameters !
 Normal termination of Gaussian 16 at Mon May 31 22:21:12 2021.
