 Gaussian 16, Revision A.03,
 Gaussian 16:  ES64L-G16RevA.03 25-Dec-2016

 -----------------------------
 # opt freq b3lyp/6-31g(2df,p)
 -----------------------------

 -------------------
 Title Card Required
 -------------------
 Symbolic Z-matrix:
 Charge =  0 Multiplicity = 1

 SCF Done:  E(RB3LYP) =  -416.741576241     A.U. after   13 cycles
 SCF Done:  E(RB3LYP) =  -416.749061755     A.U. after   12 cycles
 SCF Done:  E(RB3LYP) =  -416.750347184     A.U. after   12 cycles
 SCF Done:  E(RB3LYP) =  -416.751242748     A.U. after   12 cycles
 SCF Done:  E(RB3LYP) =  -416.751909875     A.U. after   13 cycles
 SCF Done:  E(RB3LYP) =  -416.752345916     A.U. after   11 cycles
 SCF Done:  E(RB3LYP) =  -416.752916265     A.U. after   11 cycles
 SCF Done:  E(RB3LYP) =  -416.752951592     A.U. after   12 cycles
 SCF Done:  E(RB3LYP) =  -416.753613685     A.U. after   14 cycles
 SCF Done:  E(RB3LYP) =  -416.753553495     A.U. after   11 cycles
 SCF Done:  E(RB3LYP) =  -416.753695642     A.U. after   11 cycles
 SCF Done:  E(RB3LYP) =  -416.753592109     A.U. after   11 cycles
 SCF Done:  E(RB3LYP) =  -416.753724880     A.U. after   11 cycles
 SCF Done:  E(RB3LYP) =  -416.753715535     A.U. after   10 cycles
 SCF Done:  E(RB3LYP) =  -416.753730649     A.U. after   11 cycles
 SCF Done:  E(RB3LYP) =  -416.753732425     A.U. after    8 cycles
 SCF Done:  E(RB3LYP) =  -416.753732722     A.U. after    8 cycles
 SCF Done:  E(RB3LYP) =  -416.753732765     A.U. after    7 cycles
 Optimization completed.
    -- Stationary point found.
 Normal termination of Gaussian 16 at Tue Jun  1 04:57:40 2021.

 ----------------------------------------------------------------------
 #N Geom=AllCheck Guess=TCheck SCRF=Check GenChk RB3LYP/6-31G(2df,p) Fr
 eq
 ----------------------------------------------------------------------

 Structure from the checkpoint file:  "CCpCNCtNpNCN.chk"
 -------------------
 Title Card Required
 -------------------
 Charge =  0 Multiplicity = 1

                         Standard orientation:
 ---------------------------------------------------------------------
 Center     Atomic      Atomic             Coordinates (Angstroms)
 Number     Number       Type             X           Y           Z
 ---------------------------------------------------------------------
      1          6           0        0.034332    2.143104   -0.138426
      2          6           0        0.369576    0.704336    0.254869
      3          6           0       -0.716132   -0.273248   -0.227731
      4          7           0       -1.962721   -0.076013    0.530179
      5          6           0       -3.113622   -0.542991    0.037794
      6          7           0       -4.122541   -0.907709   -0.408933
      7          7           0        1.649299    0.310085   -0.327489
      8          6           0        2.403498   -0.687972    0.414714
      9          7           0        3.667462   -0.892261   -0.276486
     10          1           0       -0.973805    2.408685    0.187256
     11          1           0        0.086895    2.256479   -1.226682
     12          1           0        0.739524    2.847045    0.314912
     13          1           0        0.400525    0.648003    1.362331
     14          1           0       -0.361760   -1.307858   -0.141071
     15          1           0       -0.934586   -0.087662   -1.282260
     16          1           0       -1.870833   -0.172848    1.533231
     17          1           0        2.248767    1.119126   -0.451587
     18          1           0        1.777209   -1.592806    0.501248
     19          1           0        2.638417   -0.369058    1.448000
     20          1           0        3.496244   -1.336751   -1.173506
     21          1           0        4.267004   -1.510451    0.259905
 ---------------------------------------------------------------------

 SCF Done:  E(RB3LYP) =  -416.753732765     A.U. after    1 cycles

 The electronic state is 1-A.
 Alpha  occ. eigenvalues --  -14.38305 -14.32233 -14.31897 -14.30719 -10.24049
 Alpha  occ. eigenvalues --  -10.23383 -10.23234 -10.23124 -10.18663  -0.96830
 Alpha  occ. eigenvalues --   -0.93378  -0.87519  -0.86469  -0.76755  -0.70581
 Alpha  occ. eigenvalues --   -0.64328  -0.60724  -0.58683  -0.51913  -0.50768
 Alpha  occ. eigenvalues --   -0.48553  -0.47205  -0.44811  -0.42216  -0.41038
 Alpha  occ. eigenvalues --   -0.40558  -0.38609  -0.37688  -0.35762  -0.34752
 Alpha  occ. eigenvalues --   -0.34307  -0.31722  -0.25368  -0.25134  -0.23529
 Alpha virt. eigenvalues --    0.03800   0.06648   0.07335   0.08472   0.09154
 Alpha virt. eigenvalues --    0.10502   0.11036   0.13615   0.13749   0.14765
 Alpha virt. eigenvalues --    0.16125   0.16649   0.17000   0.19775   0.20934

 Mulliken charges:
               1
     1  C   -0.413520
     2  C    0.040361
     3  C   -0.142048
     4  N   -0.388087
     5  C    0.321733
     6  N   -0.339581
     7  N   -0.288941
     8  C   -0.091772
     9  N   -0.512145
    10  H    0.137060
    11  H    0.130237
    12  H    0.117567
    13  H    0.051363
    14  H    0.114839
    15  H    0.141724
    16  H    0.265296
    17  H    0.223784
    18  H    0.085928
    19  H    0.083404
    20  H    0.232635
    21  H    0.230162
 Sum of Mulliken charges =   0.00000

 Dipole moment (field-independent basis, Debye):
    X=              4.6927    Y=              0.2644    Z=              2.3031  Tot=              5.2341
 Quadrupole moment (field-independent basis, Debye-Ang):
   XX=            -78.8428   YY=            -52.8468   ZZ=            -52.2990
   XY=             -9.3471   XZ=             -4.1788   YZ=             -1.1066

  Exact polarizability: 107.483   1.731  71.967   4.309   1.048  67.341
 Approx polarizability: 138.319   8.650  99.826  10.475   3.574 106.559

                      1                      2                      3
                      A                      A                      A
 Frequencies --     37.6234                67.7302                86.6882
 Red. masses --      5.3013                 2.7327                 2.7637
 Frc consts  --      0.0044                 0.0074                 0.0122
 IR Inten    --      6.4145                 6.6992                 1.3731

                      4                      5                      6
                      A                      A                      A
 Frequencies --    102.5522               153.5011               200.0569
 Red. masses --      2.6091                 3.4004                 2.3440
 Frc consts  --      0.0162                 0.0472                 0.0553
 IR Inten    --      3.9718                 5.0557                 1.9002

                      7                      8                      9
                      A                      A                      A
 Frequencies --    243.5270               271.3630               292.6347
 Red. masses --      1.2317                 1.6625                 1.7518
 Frc consts  --      0.0430                 0.0721                 0.0884
 IR Inten    --      1.6598                26.8434                 9.1136

                     10                     11                     12
                      A                      A                      A
 Frequencies --    333.5053               387.1867               433.7064
 Red. masses --      3.7504                 2.6021                 2.0548
 Frc consts  --      0.2458                 0.2298                 0.2277
 IR Inten    --     14.9136                 7.5627                40.9221

                     13                     14                     15
                      A                      A                      A
 Frequencies --    476.8580               548.6292               553.6725
 Red. masses --      1.9394                 3.6314                 8.7559
 Frc consts  --      0.2598                 0.6440                 1.5814
 IR Inten    --     16.4754                 9.8796                22.8768

                     16                     17                     18
                      A                      A                      A
 Frequencies --    638.8553               768.9456               854.7043
 Red. masses --      2.6486                 1.4004                 1.3964
 Frc consts  --      0.6369                 0.4878                 0.6010
 IR Inten    --     23.9747                52.8353               132.7013

                     19                     20                     21
                      A                      A                      A
 Frequencies --    870.9378               915.0202               947.9615
 Red. masses --      1.8405                 1.3213                 1.5310
 Frc consts  --      0.8225                 0.6518                 0.8106
 IR Inten    --     37.9121                 0.3366                 1.9867

                     22                     23                     24
                      A                      A                      A
 Frequencies --   1002.6032              1033.0226              1061.1776
 Red. masses --      2.7275                 1.9844                 2.3285
 Frc consts  --      1.6154                 1.2476                 1.5449
 IR Inten    --      5.7266                 6.9315                 4.7628

                     25                     26                     27
                      A                      A                      A
 Frequencies --   1106.6640              1144.6801              1171.7655
 Red. masses --      2.9330                 2.4357                 3.0517
 Frc consts  --      2.1163                 1.8803                 2.4687
 IR Inten    --     14.1988                32.6791               115.2476

                     28                     29                     30
                      A                      A                      A
 Frequencies --   1183.1134              1205.5598              1221.3129
 Red. masses --      2.5464                 1.8246                 1.3328
 Frc consts  --      2.1000                 1.5624                 1.1713
 IR Inten    --      7.5265                15.8955                 8.6666

                     31                     32                     33
                      A                      A                      A
 Frequencies --   1257.9055              1316.2594              1340.4016
 Red. masses --      1.2465                 1.2410                 1.2378
 Frc consts  --      1.1621                 1.2668                 1.3103
 IR Inten    --      1.7660                 4.8440                22.9858

                     34                     35                     36
                      A                      A                      A
 Frequencies --   1366.3016              1399.5800              1409.9316
 Red. masses --      1.2900                 1.3677                 1.2921
 Frc consts  --      1.4188                 1.5785                 1.5134
 IR Inten    --      4.9281                10.0086                16.8181

                     37                     38                     39
                      A                      A                      A
 Frequencies --   1435.1419              1465.4811              1491.0497
 Red. masses --      1.3439                 1.3731                 1.1429
 Frc consts  --      1.6308                 1.7374                 1.4970
 IR Inten    --     12.1858                41.1907                30.5821

                     40                     41                     42
                      A                      A                      A
 Frequencies --   1494.2566              1504.2421              1507.0663
 Red. masses --      1.0686                 1.1812                 1.0729
 Frc consts  --      1.4058                 1.5747                 1.4357
 IR Inten    --      3.5033                37.7733                 8.2795

                     43                     44                     45
                      A                      A                      A
 Frequencies --   1539.2466              1644.2550              2346.5233
 Red. masses --      1.0856                 1.1005                12.3354
 Frc consts  --      1.5154                 1.7530                40.0179
 IR Inten    --      1.8870                30.6697               174.4620

                     46                     47                     48
                      A                      A                      A
 Frequencies --   2882.0794              2919.9860              2947.1099
 Red. masses --      1.0800                 1.0652                 1.0934
 Frc consts  --      5.2857                 5.3513                 5.5953
 IR Inten    --     56.1768                96.6789                87.4455

                     49                     50                     51
                      A                      A                      A
 Frequencies --   3027.1113              3037.4839              3103.1495
 Red. masses --      1.0668                 1.0367                 1.1012
 Frc consts  --      5.7597                 5.6355                 6.2479
 IR Inten    --     46.0193                13.9505                13.4808

                     52                     53                     54
                      A                      A                      A
 Frequencies --   3107.6526              3130.4128              3499.6400
 Red. masses --      1.0978                 1.0999                 1.0493
 Frc consts  --      6.2467                 6.3504                 7.5716
 IR Inten    --     21.8521                15.0184                 0.1848

                     55                     56                     57
                      A                      A                      A
 Frequencies --   3529.6302              3571.0166              3586.0689
 Red. masses --      1.0741                 1.0738                 1.0926
 Frc consts  --      7.8838                 8.0677                 8.2782
 IR Inten    --      2.0818                23.5502                 0.9198

 - Thermochemistry -
 -------------------
 Temperature   298.150 Kelvin.  Pressure   1.00000 Atm.
 Atom     1 has atomic number  6 and mass  12.00000

 Molecular mass:   128.10620 amu.
 Principal axes and moments of inertia in atomic units:
                           1         2         3
     Eigenvalues --   530.574862811.550983169.76605
           X            0.99985  -0.01718  -0.00024
           Y            0.01718   0.99979  -0.01122
           Z            0.00044   0.01122   0.99994
 This molecule is an asymmetric top.
 Rotational symmetry number  1.
 Warning -- assumption of classical behavior for rotation
           may cause significant error
 Rotational temperatures (Kelvin)      0.16325     0.03081     0.02733
 Rotational constants (GHZ):           3.40148     0.64190     0.56936
 Zero-point vibrational energy     479550.3 (Joules/Mol)
                                  114.61526 (Kcal/Mol)
 Warning -- explicit consideration of  15 degrees of freedom as
           vibrations may cause significant error
 Vibrational temperatures:     54.13    97.45   124.73   147.55   220.85
          (Kelvin)            287.84   350.38   390.43   421.04   479.84
                              557.08   624.01   686.09   789.36   796.61
                              919.17  1106.34  1229.73  1253.09  1316.51
                             1363.91  1442.52  1486.29  1526.80  1592.24
                             1646.94  1685.91  1702.24  1734.53  1757.20
                             1809.85  1893.80  1928.54  1965.80  2013.68
                             2028.58  2064.85  2108.50  2145.29  2149.90
                             2164.27  2168.33  2214.63  2365.72  3376.12
                             4146.67  4201.21  4240.23  4355.34  4370.26
                             4464.74  4471.22  4503.97  5035.20  5078.35
                             5137.90  5159.55

 Zero-point correction=                           0.182651 (Hartree/Particle)
 Thermal correction to Energy=                    0.193568
 Thermal correction to Enthalpy=                  0.194512
 Thermal correction to Gibbs Free Energy=         0.145303
 Sum of electronic and zero-point Energies=           -416.571082
 Sum of electronic and thermal Energies=              -416.560165
 Sum of electronic and thermal Enthalpies=            -416.559221
 Sum of electronic and thermal Free Energies=         -416.608430

                     E (Thermal)             CV                S
                      KCal/Mol        Cal/Mol-Kelvin    Cal/Mol-Kelvin
 Total                  121.466             38.243            103.569
 Electronic               0.000              0.000              0.000
 Translational            0.889              2.981             40.456
 Rotational               0.889              2.981             29.937
 Vibrational            119.688             32.282             33.176
 Vibration     1          0.594              1.982              5.380
 Vibration     2          0.598              1.970              4.218
 Vibration     3          0.601              1.958              3.733
 Vibration     4          0.605              1.947              3.405
 Vibration     5          0.619              1.899              2.628
 Vibration     6          0.638              1.840              2.133
 Vibration     7          0.659              1.773              1.777
 Vibration     8          0.675              1.726              1.588
 Vibration     9          0.688              1.687              1.459
 Vibration    10          0.715              1.609              1.243
 Vibration    11          0.756              1.498              1.011
 Vibration    12          0.794              1.397              0.847
 Vibration    13          0.833              1.301              0.719
 Vibration    14          0.904              1.143              0.547
 Vibration    15          0.909              1.132              0.537

 Optimization completed.
    -- Stationary point found.
 Normal termination of Gaussian 16 at Tue Jun  1 05:27:59 2021.
