 Gaussian 16, Revision A.03,
 Gaussian 16:  ES64L-G16RevA.03 25-Dec-2016

 -----------------------------
 # opt freq b3lyp/6-31g(2df,p)
 -----------------------------

 -------------------
 Title Card Required
 -------------------
 Symbolic Z-matrix:
 Charge =  0 Multiplicity = 1

 SCF Done:  E(RB3LYP) =  -400.677217324     A.U. after   15 cycles
 SCF Done:  E(RB3LYP) =  -400.678822350     A.U. after   12 cycles
 SCF Done:  E(RB3LYP) =  -400.679530576     A.U. after   11 cycles
 SCF Done:  E(RB3LYP) =  -400.679587346     A.U. after   10 cycles
 SCF Done:  E(RB3LYP) =  -400.679592288     A.U. after    8 cycles
 SCF Done:  E(RB3LYP) =  -400.679592679     A.U. after    7 cycles
 Optimization completed.
    -- Stationary point found.
 Normal termination of Gaussian 16 at Mon May 31 20:02:55 2021.

 ----------------------------------------------------------------------
 #N Geom=AllCheck Guess=TCheck SCRF=Check GenChk RB3LYP/6-31G(2df,p) Fr
 eq
 ----------------------------------------------------------------------

 Structure from the checkpoint file:  "CCpCppCpCdCNdNN.chk"
 -------------------
 Title Card Required
 -------------------
 Charge =  0 Multiplicity = 1

                         Standard orientation:
 ---------------------------------------------------------------------
 Center     Atomic      Atomic             Coordinates (Angstroms)
 Number     Number       Type             X           Y           Z
 ---------------------------------------------------------------------
      1          6           0       -2.796125    1.219848   -0.000009
      2          6           0       -1.820859    0.027598    0.000001
      3          6           0       -2.073803   -0.830248    1.259720
      4          6           0       -2.073804   -0.830269   -1.259704
      5          6           0       -0.395486    0.559011   -0.000004
      6          6           0        0.716474   -0.184125   -0.000001
      7          7           0        1.977505    0.419478   -0.000009
      8          7           0        2.914926   -0.425636   -0.000008
      9          7           0        4.119682    0.136928    0.000011
     10          1           0       -3.835439    0.874916   -0.000006
     11          1           0       -2.650059    1.848163   -0.885345
     12          1           0       -2.650058    1.848178    0.885317
     13          1           0       -3.106159   -1.198579    1.275038
     14          1           0       -1.906587   -0.247921    2.171304
     15          1           0       -1.406573   -1.696852    1.290875
     16          1           0       -3.106160   -1.198601   -1.275015
     17          1           0       -1.406574   -1.696874   -1.290845
     18          1           0       -1.906589   -0.247958   -2.171298
     19          1           0       -0.263931    1.638943   -0.000012
     20          1           0        0.697760   -1.274411    0.000006
     21          1           0        4.908856   -0.480596   -0.000003
     22          1           0        4.208346    1.145305    0.000006
 ---------------------------------------------------------------------

 SCF Done:  E(RB3LYP) =  -400.679592679     A.U. after    1 cycles

 The electronic state is 1-A.
 Alpha  occ. eigenvalues --  -14.40103 -14.37139 -14.34159 -10.19400 -10.19233
 Alpha  occ. eigenvalues --  -10.16975 -10.16675 -10.16650 -10.16650  -1.05841
 Alpha  occ. eigenvalues --   -0.89719  -0.81806  -0.74686  -0.67845  -0.67650
 Alpha  occ. eigenvalues --   -0.65376  -0.58400  -0.54589  -0.51972  -0.49384
 Alpha  occ. eigenvalues --   -0.44323  -0.43130  -0.43110  -0.42666  -0.40723
 Alpha  occ. eigenvalues --   -0.38255  -0.37446  -0.35725  -0.35700  -0.32764
 Alpha  occ. eigenvalues --   -0.32406  -0.31246  -0.29746  -0.23675  -0.20658
 Alpha virt. eigenvalues --   -0.02603   0.06500   0.07959   0.08949   0.12173
 Alpha virt. eigenvalues --    0.13820   0.14434   0.15679   0.15799   0.16255
 Alpha virt. eigenvalues --    0.16709   0.20131   0.20450   0.20514   0.21553

 Mulliken charges:
               1
     1  C   -0.410019
     2  C    0.237861
     3  C   -0.391727
     4  C   -0.391727
     5  C   -0.125947
     6  C    0.031548
     7  N   -0.211952
     8  N   -0.049450
     9  N   -0.367035
    10  H    0.105853
    11  H    0.110893
    12  H    0.110893
    13  H    0.104392
    14  H    0.112396
    15  H    0.111256
    16  H    0.104392
    17  H    0.111256
    18  H    0.112396
    19  H    0.085364
    20  H    0.086007
    21  H    0.273412
    22  H    0.249938
 Sum of Mulliken charges =  -0.00000

 Dipole moment (field-independent basis, Debye):
    X=              1.6527    Y=              0.1073    Z=             -0.0000  Tot=              1.6561
 Quadrupole moment (field-independent basis, Debye-Ang):
   XX=            -38.6072   YY=            -55.5285   ZZ=            -57.8260
   XY=              1.1375   XZ=             -0.0001   YZ=             -0.0000

  Exact polarizability: 159.392  -4.439  78.702   0.000  -0.000  64.244
 Approx polarizability: 227.616 -20.710 121.861   0.000  -0.000  92.824

 ******    2 imaginary frequencies (negative Signs) ******

                      1                      2                      3
                      A                      A                      A
 Frequencies --   -440.9545               -70.8410                89.6619
 Red. masses --      1.2658                 2.2125                 3.5581
 Frc consts  --      0.1450                 0.0065                 0.0169
 IR Inten    --    187.4958                 0.2258                 3.3860

                      4                      5                      6
                      A                      A                      A
 Frequencies --    108.3601               193.4308               223.0722
 Red. masses --      3.4475                 3.1999                 1.0308
 Frc consts  --      0.0238                 0.0705                 0.0302
 IR Inten    --      2.3947                 0.0321                 0.0147

                      7                      8                      9
                      A                      A                      A
 Frequencies --    251.6913               275.2443               280.3843
 Red. masses --      3.2366                 1.0813                 1.0839
 Frc consts  --      0.1208                 0.0483                 0.0502
 IR Inten    --      7.3504                 0.0157                 0.6872

                     10                     11                     12
                      A                      A                      A
 Frequencies --    300.3637               304.5817               358.9883
 Red. masses --      2.1454                 2.7733                 2.4276
 Frc consts  --      0.1140                 0.1516                 0.1843
 IR Inten    --      8.2601                 1.1740                 1.7406

                     13                     14                     15
                      A                      A                      A
 Frequencies --    370.8072               474.5805               487.2942
 Red. masses --      2.4641                 2.8629                 3.6240
 Frc consts  --      0.1996                 0.3799                 0.5070
 IR Inten    --      4.0137                 1.2647                 0.7281

                     16                     17                     18
                      A                      A                      A
 Frequencies --    515.2043               644.9105               662.2065
 Red. masses --      2.9500                 1.3089                 3.2270
 Frc consts  --      0.4614                 0.3208                 0.8338
 IR Inten    --      5.7560                 1.1843                 5.4473

                     19                     20                     21
                      A                      A                      A
 Frequencies --    772.2935               874.3762               929.5133
 Red. masses --      3.3282                 2.0291                 1.7235
 Frc consts  --      1.1696                 0.9140                 0.8773
 IR Inten    --      0.2385                 5.1217                 0.0339

                     22                     23                     24
                      A                      A                      A
 Frequencies --    934.9012               958.9583               959.7046
 Red. masses --      1.7874                 2.0520                 1.1978
 Frc consts  --      0.9205                 1.1118                 0.6500
 IR Inten    --      3.0121                15.6189                 0.0080

                     25                     26                     27
                      A                      A                      A
 Frequencies --   1001.0509              1046.7630              1050.4177
 Red. masses --      1.1310                 1.4518                 1.4100
 Frc consts  --      0.6678                 0.9373                 0.9166
 IR Inten    --     19.7147                 7.6161                 0.9780

                     28                     29                     30
                      A                      A                      A
 Frequencies --   1116.9427              1209.4160              1220.2788
 Red. masses --      2.0430                 3.0930                 2.2280
 Frc consts  --      1.5017                 2.6655                 1.9547
 IR Inten    --      4.0144               147.8339                 0.8389

                     31                     32                     33
                      A                      A                      A
 Frequencies --   1224.9459              1270.1511              1300.4377
 Red. masses --      2.6908                 2.7047                 2.1302
 Frc consts  --      2.3788                 2.5709                 2.1225
 IR Inten    --      5.7314                27.3327                79.2457

                     34                     35                     36
                      A                      A                      A
 Frequencies --   1320.5505              1328.4947              1396.2036
 Red. masses --      1.6560                 1.6513                 1.2115
 Frc consts  --      1.7014                 1.7171                 1.3915
 IR Inten    --     39.3163                20.0249                 2.7094

                     37                     38                     39
                      A                      A                      A
 Frequencies --   1397.8636              1430.1603              1478.4070
 Red. masses --      1.2303                 1.2207                 1.0494
 Frc consts  --      1.4164                 1.4710                 1.3514
 IR Inten    --      6.9515                 0.2475                 0.0007

                     40                     41                     42
                      A                      A                      A
 Frequencies --   1482.7698              1485.1995              1501.7061
 Red. masses --      1.0450                 1.0456                 1.0589
 Frc consts  --      1.3537                 1.3589                 1.4069
 IR Inten    --      0.1773                 0.2999                 7.7664

                     43                     44                     45
                      A                      A                      A
 Frequencies --   1503.0480              1515.6263              1546.6751
 Red. masses --      1.0507                 1.0640                 6.8430
 Frc consts  --      1.3986                 1.4401                 9.6449
 IR Inten    --      3.9823                 2.5146               249.9196

                     46                     47                     48
                      A                      A                      A
 Frequencies --   1607.7523              1704.2200              3023.2735
 Red. masses --      1.2025                 6.0045                 1.0345
 Frc consts  --      1.8314                10.2749                 5.5711
 IR Inten    --     36.8540                 0.5000                26.3960

                     49                     50                     51
                      A                      A                      A
 Frequencies --   3023.6455              3030.6215              3091.5426
 Red. masses --      1.0353                 1.0361                 1.1005
 Frc consts  --      5.5768                 5.6068                 6.1973
 IR Inten    --     26.1549                34.2644                 1.4567

                     52                     53                     54
                      A                      A                      A
 Frequencies --   3093.6938              3094.9263              3100.7308
 Red. masses --      1.1010                 1.1016                 1.1006
 Frc consts  --      6.2087                 6.2168                 6.2346
 IR Inten    --      9.2762                28.2194                87.2659

                     55                     56                     57
                      A                      A                      A
 Frequencies --   3105.4433              3107.4685              3120.5445
 Red. masses --      1.1019                 1.1004                 1.0901
 Frc consts  --      6.2610                 6.2605                 6.2545
 IR Inten    --     20.9616                33.0337                32.7290

                     58                     59                     60
                      A                      A                      A
 Frequencies --   3151.0361              3526.5283              3759.5901
 Red. masses --      1.0878                 1.0463                 1.1007
 Frc consts  --      6.3638                 7.6665                 9.1663
 IR Inten    --     13.4662                48.3765                96.0516

 - Thermochemistry -
 -------------------
 Temperature   298.150 Kelvin.  Pressure   1.00000 Atm.
 Atom     1 has atomic number  6 and mass  12.00000

 Molecular mass:   127.11095 amu.
 Principal axes and moments of inertia in atomic units:
                           1         2         3
     Eigenvalues --   435.689982904.346872941.48258
           X            1.00000   0.00175  -0.00000
           Y           -0.00175   1.00000  -0.00000
           Z            0.00000   0.00000   1.00000
 This molecule is an asymmetric top.
 Rotational symmetry number  1.
 Warning -- assumption of classical behavior for rotation
           may cause significant error
 Rotational temperatures (Kelvin)      0.19880     0.02982     0.02945
 Rotational constants (GHZ):           4.14226     0.62139     0.61355
    2 imaginary frequencies ignored.
 Zero-point vibrational energy     498475.9 (Joules/Mol)
                                  119.13859 (Kcal/Mol)
 Warning -- explicit consideration of  14 degrees of freedom as
           vibrations may cause significant error
 Vibrational temperatures:    129.00   155.91   278.30   320.95   362.13
          (Kelvin)            396.02   403.41   432.16   438.23   516.50
                              533.51   682.82   701.11   741.26   927.88
                              952.77  1111.16  1258.03  1337.36  1345.11
                             1379.73  1380.80  1440.29  1506.06  1511.32
                             1607.03  1740.08  1755.71  1762.42  1827.46
                             1871.04  1899.98  1911.41  2008.83  2011.21
                             2057.68  2127.10  2133.38  2136.87  2160.62
                             2162.55  2180.65  2225.32  2313.20  2451.99
                             4349.82  4350.35  4360.39  4448.04  4451.14
                             4452.91  4461.26  4468.04  4470.95  4489.77
                             4533.64  5073.89  5409.21

 Zero-point correction=                           0.189859 (Hartree/Particle)
 Thermal correction to Energy=                    0.199725
 Thermal correction to Enthalpy=                  0.200669
 Thermal correction to Gibbs Free Energy=         0.155368
 Sum of electronic and zero-point Energies=           -400.489733
 Sum of electronic and thermal Energies=              -400.479868
 Sum of electronic and thermal Enthalpies=            -400.478924
 Sum of electronic and thermal Free Energies=         -400.524225

                     E (Thermal)             CV                S
                      KCal/Mol        Cal/Mol-Kelvin    Cal/Mol-Kelvin
 Total                  125.329             37.150             95.345
 Electronic               0.000              0.000              0.000
 Translational            0.889              2.981             40.433
 Rotational               0.889              2.981             29.699
 Vibrational            123.552             31.189             25.212
 Vibration     1          0.602              1.956              3.667
 Vibration     2          0.606              1.943              3.298
 Vibration     3          0.635              1.849              2.195
 Vibration     4          0.649              1.806              1.934
 Vibration     5          0.664              1.760              1.719
 Vibration     6          0.677              1.719              1.563
 Vibration     7          0.680              1.710              1.531
 Vibration     8          0.693              1.673              1.415
 Vibration     9          0.695              1.665              1.392
 Vibration    10          0.734              1.557              1.126
 Vibration    11          0.743              1.532              1.076
 Vibration    12          0.831              1.306              0.725
 Vibration    13          0.843              1.278              0.691
 Vibration    14          0.870              1.216              0.621

 Optimization completed.
    -- Stationary point found.
 Normal termination of Gaussian 16 at Mon May 31 20:44:19 2021.
