 Gaussian 16, Revision A.03,
 Gaussian 16:  ES64L-G16RevA.03 25-Dec-2016

 -----------------------------
 # opt freq b3lyp/6-31g(2df,p)
 -----------------------------

 -------------------
 Title Card Required
 -------------------
 Symbolic Z-matrix:
 Charge =  0 Multiplicity = 1

 SCF Done:  E(RB3LYP) =  -403.045422303     A.U. after   12 cycles
 SCF Done:  E(RB3LYP) =  -403.051111475     A.U. after   12 cycles
 SCF Done:  E(RB3LYP) =  -403.055666262     A.U. after   11 cycles
 SCF Done:  E(RB3LYP) =  -403.053800270     A.U. after   12 cycles
 SCF Done:  E(RB3LYP) =  -403.061708081     A.U. after   11 cycles
 SCF Done:  E(RB3LYP) =  -403.068740086     A.U. after   11 cycles
 SCF Done:  E(RB3LYP) =  -403.072762883     A.U. after   13 cycles
 SCF Done:  E(RB3LYP) =  -403.073603421     A.U. after   11 cycles
 SCF Done:  E(RB3LYP) =  -403.076429845     A.U. after   11 cycles
 SCF Done:  E(RB3LYP) =  -403.077545481     A.U. after   10 cycles
 SCF Done:  E(RB3LYP) =  -403.077791167     A.U. after   10 cycles
 SCF Done:  E(RB3LYP) =  -403.077861423     A.U. after   10 cycles
 SCF Done:  E(RB3LYP) =  -403.077901098     A.U. after    9 cycles
 SCF Done:  E(RB3LYP) =  -403.077917751     A.U. after    9 cycles
 SCF Done:  E(RB3LYP) =  -403.077923105     A.U. after    7 cycles
 SCF Done:  E(RB3LYP) =  -403.077924935     A.U. after    7 cycles
 SCF Done:  E(RB3LYP) =  -403.077925351     A.U. after    7 cycles
 Optimization completed.
    -- Stationary point found.
 Normal termination of Gaussian 16 at Mon May 31 19:56:41 2021.

 ----------------------------------------------------------------------
 #N Geom=AllCheck Guess=TCheck SCRF=Check GenChk RB3LYP/6-31G(2df,p) Fr
 eq
 ----------------------------------------------------------------------

 Structure from the checkpoint file:  "CCpCpNNpCpNpCpC.chk"
 -------------------
 Title Card Required
 -------------------
 Charge =  0 Multiplicity = 1

                         Standard orientation:
 ---------------------------------------------------------------------
 Center     Atomic      Atomic             Coordinates (Angstroms)
 Number     Number       Type             X           Y           Z
 ---------------------------------------------------------------------
      1          6           0        2.808413   -0.780841   -0.736777
      2          6           0        1.705472   -0.283758    0.199517
      3          6           0        2.211522    0.809476    1.143283
      4          7           0        0.622079    0.248096   -0.634505
      5          7           0       -0.584051    0.545177    0.065476
      6          6           0       -1.037573    1.852556   -0.425918
      7          7           0       -1.590593   -0.487805   -0.285110
      8          6           0       -1.212107   -1.746573    0.358348
      9          6           0       -2.911464   -0.096523    0.208408
     10          1           0        3.658775   -1.158052   -0.161857
     11          1           0        3.159368    0.031511   -1.381623
     12          1           0        2.452664   -1.594491   -1.379889
     13          1           0        1.372284   -1.129121    0.822399
     14          1           0        2.624063    1.649333    0.573693
     15          1           0        2.991922    0.418281    1.804340
     16          1           0        1.389819    1.180112    1.760887
     17          1           0        0.406970   -0.349327   -1.430947
     18          1           0       -0.189567    2.530392   -0.341257
     19          1           0       -1.852254    2.237759    0.190517
     20          1           0       -1.358052    1.816800   -1.479324
     21          1           0       -0.270302   -2.117655   -0.046564
     22          1           0       -1.981471   -2.489285    0.130969
     23          1           0       -1.114336   -1.653254    1.452735
     24          1           0       -3.311237    0.746836   -0.355208
     25          1           0       -2.908463    0.157131    1.282754
     26          1           0       -3.587811   -0.941260    0.056187
 ---------------------------------------------------------------------

 SCF Done:  E(RB3LYP) =  -403.077925351     A.U. after    1 cycles

 The electronic state is 1-A.
 Alpha  occ. eigenvalues --  -14.36372 -14.34369 -14.32480 -10.20312 -10.19902
 Alpha  occ. eigenvalues --  -10.19650 -10.18959 -10.17109 -10.15987  -0.99540
 Alpha  occ. eigenvalues --   -0.88625  -0.80375  -0.73425  -0.69668  -0.67893
 Alpha  occ. eigenvalues --   -0.65657  -0.58611  -0.56424  -0.51071  -0.48209
 Alpha  occ. eigenvalues --   -0.46659  -0.44681  -0.43666  -0.42416  -0.40623
 Alpha  occ. eigenvalues --   -0.39664  -0.38756  -0.38190  -0.37356  -0.36451
 Alpha  occ. eigenvalues --   -0.36247  -0.35013  -0.33530  -0.32464  -0.28246
 Alpha  occ. eigenvalues --   -0.22814  -0.18639
 Alpha virt. eigenvalues --    0.08194   0.10264   0.11313   0.12057   0.12338
 Alpha virt. eigenvalues --    0.14391   0.14836   0.15106   0.16543   0.16908
 Alpha virt. eigenvalues --    0.17229   0.17648   0.18761   0.18833   0.19700

 Mulliken charges:
               1
     1  C   -0.406269
     2  C    0.110069
     3  C   -0.367589
     4  N   -0.267410
     5  N   -0.083508
     6  C   -0.282090
     7  N   -0.070117
     8  C   -0.290638
     9  C   -0.311245
    10  H    0.115955
    11  H    0.123233
    12  H    0.106293
    13  H    0.055933
    14  H    0.109665
    15  H    0.100889
    16  H    0.121930
    17  H    0.206432
    18  H    0.129276
    19  H    0.113223
    20  H    0.099420
    21  H    0.121653
    22  H    0.115869
    23  H    0.100436
    24  H    0.124848
    25  H    0.103080
    26  H    0.120662
 Sum of Mulliken charges =  -0.00000

 Dipole moment (field-independent basis, Debye):
    X=             -0.5836    Y=             -0.7297    Z=              0.0578  Tot=              0.9362
 Quadrupole moment (field-independent basis, Debye-Ang):
   XX=            -55.4811   YY=            -56.7429   ZZ=            -60.3139
   XY=             -0.9328   XZ=             -0.6298   YZ=             -0.0821

  Exact polarizability: 108.794  -1.406  90.480  -0.983  -0.926  78.902
 Approx polarizability: 134.836  -0.835 126.544  -1.362  -1.352 120.329

                      1                      2                      3
                      A                      A                      A
 Frequencies --     51.2671                56.0063               119.1620
 Red. masses --      2.7122                 2.6377                 2.9043
 Frc consts  --      0.0042                 0.0049                 0.0243
 IR Inten    --      0.3996                 0.3577                 0.3398

                      4                      5                      6
                      A                      A                      A
 Frequencies --    186.5576               226.8271               248.0284
 Red. masses --      2.4728                 1.0472                 1.2989
 Frc consts  --      0.0507                 0.0317                 0.0471
 IR Inten    --      2.4967                 0.2075                 0.2663

                      7                      8                      9
                      A                      A                      A
 Frequencies --    251.6824               272.5360               286.8306
 Red. masses --      1.1123                 1.1830                 1.2980
 Frc consts  --      0.0415                 0.0518                 0.0629
 IR Inten    --      0.3006                 0.0626                 0.3548

                     10                     11                     12
                      A                      A                      A
 Frequencies --    309.1506               344.1887               361.6166
 Red. masses --      1.8256                 2.5570                 2.0869
 Frc consts  --      0.1028                 0.1785                 0.1608
 IR Inten    --      0.8714                 5.5126                 4.0366

                     13                     14                     15
                      A                      A                      A
 Frequencies --    415.2738               441.0120               471.3593
 Red. masses --      2.5107                 2.3124                 2.0035
 Frc consts  --      0.2551                 0.2650                 0.2623
 IR Inten    --      0.6849                 1.1824                 0.7794

                     16                     17                     18
                      A                      A                      A
 Frequencies --    506.0517               516.8668               548.4223
 Red. masses --      2.0940                 2.5154                 3.0277
 Frc consts  --      0.3160                 0.3959                 0.5365
 IR Inten    --     12.0231                 6.6943                 1.0500

                     19                     20                     21
                      A                      A                      A
 Frequencies --    677.6247               791.9868               858.4038
 Red. masses --      2.1119                 3.2964                 2.3258
 Frc consts  --      0.5713                 1.2182                 1.0097
 IR Inten    --     39.6080                 6.0544                 3.9507

                     22                     23                     24
                      A                      A                      A
 Frequencies --    924.6997               938.1265               960.4396
 Red. masses --      1.3034                 2.0609                 1.5784
 Frc consts  --      0.6566                 1.0687                 0.8578
 IR Inten    --      5.0025                35.1413                 1.0129

                     25                     26                     27
                      A                      A                      A
 Frequencies --    975.8279              1010.2620              1037.2681
 Red. masses --      2.1935                 2.7775                 1.6571
 Frc consts  --      1.2307                 1.6702                 1.0504
 IR Inten    --      0.4969                12.2842                11.5043

                     28                     29                     30
                      A                      A                      A
 Frequencies --   1098.4355              1116.7593              1145.1784
 Red. masses --      1.5674                 1.6603                 1.6070
 Frc consts  --      1.1143                 1.2200                 1.2417
 IR Inten    --      0.2208                 7.9612                 8.9447

                     31                     32                     33
                      A                      A                      A
 Frequencies --   1162.3812              1171.4451              1189.1135
 Red. masses --      2.5641                 1.6871                 1.8425
 Frc consts  --      2.0412                 1.3640                 1.5350
 IR Inten    --      5.5108                 2.9935                 6.3246

                     34                     35                     36
                      A                      A                      A
 Frequencies --   1194.0154              1218.9031              1248.9533
 Red. masses --      1.7126                 2.0194                 1.8372
 Frc consts  --      1.4385                 1.7677                 1.6885
 IR Inten    --      4.8291                10.4902                 1.7973

                     37                     38                     39
                      A                      A                      A
 Frequencies --   1281.4845              1349.5136              1384.8123
 Red. masses --      3.3704                 1.3564                 1.2504
 Frc consts  --      3.2611                 1.4555                 1.4128
 IR Inten    --     14.2917                 7.3681                 7.3671

                     40                     41                     42
                      A                      A                      A
 Frequencies --   1392.4744              1409.9366              1425.2935
 Red. masses --      1.3431                 1.2645                 1.1654
 Frc consts  --      1.5343                 1.4811                 1.3948
 IR Inten    --     18.9988                 9.4263                 1.4218

                     43                     44                     45
                      A                      A                      A
 Frequencies --   1433.9257              1462.3586              1468.5413
 Red. masses --      1.1734                 1.1713                 1.1326
 Frc consts  --      1.4216                 1.4758                 1.4391
 IR Inten    --      2.0588                 1.0063                 5.9158

                     46                     47                     48
                      A                      A                      A
 Frequencies --   1479.9995              1484.4125              1487.9310
 Red. masses --      1.0522                 1.0529                 1.0694
 Frc consts  --      1.3580                 1.3669                 1.3949
 IR Inten    --      2.2121                 8.0537                 0.5268

                     49                     50                     51
                      A                      A                      A
 Frequencies --   1491.3585              1493.8434              1498.3501
 Red. masses --      1.0498                 1.0573                 1.0830
 Frc consts  --      1.3757                 1.3901                 1.4325
 IR Inten    --      3.3705                 6.4055                 6.4701

                     52                     53                     54
                      A                      A                      A
 Frequencies --   1500.4604              1510.0137              1516.0996
 Red. masses --      1.0466                 1.0837                 1.0592
 Frc consts  --      1.3884                 1.4558                 1.4344
 IR Inten    --      3.5502                13.3889                 4.3189

                     55                     56                     57
                      A                      A                      A
 Frequencies --   1525.3027              2956.8263              2965.9009
 Red. masses --      1.0520                 1.0567                 1.0707
 Frc consts  --      1.4420                 5.4432                 5.5494
 IR Inten    --     12.4066                48.8971                 7.4606

                     58                     59                     60
                      A                      A                      A
 Frequencies --   2972.6529              2980.9842              3027.4623
 Red. masses --      1.0646                 1.0542                 1.0365
 Frc consts  --      5.5429                 5.5194                 5.5973
 IR Inten    --    127.5739                39.4122                27.7612

                     61                     62                     63
                      A                      A                      A
 Frequencies --   3033.2821              3089.0519              3092.9754
 Red. masses --      1.0363                 1.0806                 1.0990
 Frc consts  --      5.6176                 6.0752                 6.1942
 IR Inten    --     18.3982                 6.6859                32.6951

                     64                     65                     66
                      A                      A                      A
 Frequencies --   3096.0326              3101.4031              3102.6384
 Red. masses --      1.0774                 1.1017                 1.0831
 Frc consts  --      6.0844                 6.2436                 6.1429
 IR Inten    --     45.1776                20.8779                23.2446

                     67                     68                     69
                      A                      A                      A
 Frequencies --   3115.7190              3122.4383              3134.0401
 Red. masses --      1.1012                 1.1002                 1.0979
 Frc consts  --      6.2984                 6.3201                 6.3536
 IR Inten    --     33.7437                21.8535                31.6547

                     70                     71                     72
                      A                      A                      A
 Frequencies --   3137.2122              3156.8922              3459.4068
 Red. masses --      1.0994                 1.0997                 1.0734
 Frc consts  --      6.3753                 6.4575                 7.5686
 IR Inten    --     22.2738                15.8544                 7.0230

 - Thermochemistry -
 -------------------
 Temperature   298.150 Kelvin.  Pressure   1.00000 Atm.
 Atom     1 has atomic number  6 and mass  12.00000

 Molecular mass:   131.14225 amu.
 Principal axes and moments of inertia in atomic units:
                           1         2         3
     Eigenvalues --   697.203261829.372882145.34955
           X            0.99998  -0.00573  -0.00324
           Y            0.00572   0.99998  -0.00199
           Z            0.00325   0.00198   0.99999
 This molecule is an asymmetric top.
 Rotational symmetry number  1.
 Warning -- assumption of classical behavior for rotation
           may cause significant error
 Rotational temperatures (Kelvin)      0.12423     0.04735     0.04037
 Rotational constants (GHZ):           2.58854     0.98654     0.84123
 Zero-point vibrational energy     624891.5 (Joules/Mol)
                                  149.35264 (Kcal/Mol)
 Warning -- explicit consideration of  18 degrees of freedom as
           vibrations may cause significant error
 Vibrational temperatures:     73.76    80.58   171.45   268.41   326.35
          (Kelvin)            356.86   362.11   392.12   412.69   444.80
                              495.21   520.29   597.49   634.52   678.18
                              728.10   743.66   789.06   974.95  1139.49
                             1235.05  1330.44  1349.75  1381.86  1404.00
                             1453.54  1492.40  1580.40  1606.77  1647.66
                             1672.41  1685.45  1710.87  1717.92  1753.73
                             1796.97  1843.77  1941.65  1992.44  2003.46
                             2028.58  2050.68  2063.10  2104.01  2112.90
                             2129.39  2135.74  2140.80  2145.73  2149.31
                             2155.79  2158.83  2172.57  2181.33  2194.57
                             4254.21  4267.27  4276.98  4288.97  4355.84
                             4364.22  4444.46  4450.10  4454.50  4462.23
                             4464.00  4482.82  4492.49  4509.18  4513.75
                             4542.06  4977.31

 Zero-point correction=                           0.238009 (Hartree/Particle)
 Thermal correction to Energy=                    0.249524
 Thermal correction to Enthalpy=                  0.250468
 Thermal correction to Gibbs Free Energy=         0.201484
 Sum of electronic and zero-point Energies=           -402.839917
 Sum of electronic and thermal Energies=              -402.828401
 Sum of electronic and thermal Enthalpies=            -402.827457
 Sum of electronic and thermal Free Energies=         -402.876441

                     E (Thermal)             CV                S
                      KCal/Mol        Cal/Mol-Kelvin    Cal/Mol-Kelvin
 Total                  156.579             43.272            103.096
 Electronic               0.000              0.000              0.000
 Translational            0.889              2.981             40.526
 Rotational               0.889              2.981             29.394
 Vibrational            154.801             37.311             33.176
 Vibration     1          0.596              1.977              4.768
 Vibration     2          0.596              1.975              4.593
 Vibration     3          0.609              1.933              3.114
 Vibration     4          0.632              1.858              2.262
 Vibration     5          0.650              1.800              1.904
 Vibration     6          0.662              1.766              1.745
 Vibration     7          0.664              1.760              1.719
 Vibration     8          0.676              1.724              1.580
 Vibration     9          0.684              1.698              1.493
 Vibration    10          0.699              1.656              1.367
 Vibration    11          0.723              1.587              1.193
 Vibration    12          0.736              1.551              1.115
 Vibration    13          0.779              1.437              0.908
 Vibration    14          0.801              1.381              0.823
 Vibration    15          0.828              1.314              0.734
 Vibration    16          0.861              1.237              0.643
 Vibration    17          0.872              1.213              0.617
 Vibration    18          0.904              1.143              0.547

 Optimization completed.
    -- Stationary point found.
 Normal termination of Gaussian 16 at Mon May 31 20:41:26 2021.
