 Gaussian 16, Revision A.03,
 Gaussian 16:  ES64L-G16RevA.03 25-Dec-2016

 -----------------------------
 # opt freq b3lyp/6-31g(2df,p)
 -----------------------------

 -------------------
 Title Card Required
 -------------------
 Symbolic Z-matrix:
 Charge =  0 Multiplicity = 1

 SCF Done:  E(RB3LYP) =  -432.733613762     A.U. after   14 cycles
 SCF Done:  E(RB3LYP) =  -432.743557303     A.U. after   13 cycles
 SCF Done:  E(RB3LYP) =  -432.745250917     A.U. after   12 cycles
 SCF Done:  E(RB3LYP) =  -432.745553600     A.U. after   12 cycles
 SCF Done:  E(RB3LYP) =  -432.745869015     A.U. after   13 cycles
 SCF Done:  E(RB3LYP) =  -432.746218674     A.U. after   13 cycles
 SCF Done:  E(RB3LYP) =  -432.747281671     A.U. after   15 cycles
 SCF Done:  E(RB3LYP) =  -432.748228235     A.U. after   13 cycles
 SCF Done:  E(RB3LYP) =  -432.749765499     A.U. after   14 cycles
 SCF Done:  E(RB3LYP) =  -432.750761130     A.U. after   13 cycles
 SCF Done:  E(RB3LYP) =  -432.750916122     A.U. after   14 cycles
 SCF Done:  E(RB3LYP) =  -432.751228353     A.U. after   13 cycles
 SCF Done:  E(RB3LYP) =  -432.751288444     A.U. after   11 cycles
 SCF Done:  E(RB3LYP) =  -432.751306840     A.U. after   12 cycles
 SCF Done:  E(RB3LYP) =  -432.751315649     A.U. after   10 cycles
 SCF Done:  E(RB3LYP) =  -432.751318773     A.U. after   10 cycles
 SCF Done:  E(RB3LYP) =  -432.751319581     A.U. after    9 cycles
 SCF Done:  E(RB3LYP) =  -432.751319752     A.U. after    7 cycles
 Optimization completed.
    -- Stationary point found.
 Normal termination of Gaussian 16 at Tue Jun  1 06:35:43 2021.

 ----------------------------------------------------------------------
 #N Geom=AllCheck Guess=TCheck SCRF=Check GenChk RB3LYP/6-31G(2df,p) Fr
 eq
 ----------------------------------------------------------------------

 Structure from the checkpoint file:  "CCpdNpNdNCNCN.chk"
 -------------------
 Title Card Required
 -------------------
 Charge =  0 Multiplicity = 1

                         Standard orientation:
 ---------------------------------------------------------------------
 Center     Atomic      Atomic             Coordinates (Angstroms)
 Number     Number       Type             X           Y           Z
 ---------------------------------------------------------------------
      1          6           0        3.258167   -1.362775   -0.103327
      2          6           0        2.672312    0.014450    0.059707
      3          7           0        3.184236    1.047721    0.583885
      4          7           0        1.393137    0.130425   -0.588159
      5          7           0        0.457550    0.413725    0.170779
      6          6           0       -0.816567    0.600915   -0.535950
      7          7           0       -1.854018   -0.050911    0.232713
      8          6           0       -3.187773    0.122784   -0.313885
      9          7           0       -4.123930   -0.554405    0.571122
     10          1           0        4.270850   -1.408937    0.302495
     11          1           0        3.277782   -1.643143   -1.161144
     12          1           0        2.633661   -2.101126    0.412375
     13          1           0        4.125866    0.842743    0.924519
     14          1           0       -0.773902    0.186545   -1.550948
     15          1           0       -0.939639    1.699666   -0.619730
     16          1           0       -1.841326    0.288324    1.190327
     17          1           0       -3.167314   -0.261279   -1.349935
     18          1           0       -3.501699    1.182178   -0.377499
     19          1           0       -3.962354   -1.556258    0.529891
     20          1           0       -5.077586   -0.386836    0.268004
 ---------------------------------------------------------------------

 SCF Done:  E(RB3LYP) =  -432.751319752     A.U. after    1 cycles

 The electronic state is 1-A.
 Alpha  occ. eigenvalues --  -14.38456 -14.38066 -14.31470 -14.31300 -14.31079
 Alpha  occ. eigenvalues --  -10.25585 -10.23302 -10.23276 -10.19830  -1.04429
 Alpha  occ. eigenvalues --   -0.92874  -0.90539  -0.85690  -0.76593  -0.72602
 Alpha  occ. eigenvalues --   -0.64513  -0.61710  -0.54102  -0.50405  -0.49457
 Alpha  occ. eigenvalues --   -0.49195  -0.46449  -0.45728  -0.44149  -0.41613
 Alpha  occ. eigenvalues --   -0.41366  -0.40424  -0.39331  -0.37416  -0.34927
 Alpha  occ. eigenvalues --   -0.30321  -0.27324  -0.24445  -0.23435  -0.22366
 Alpha virt. eigenvalues --   -0.05038   0.01678   0.08449   0.09166   0.10729
 Alpha virt. eigenvalues --    0.12958   0.13081   0.14552   0.15077   0.16663
 Alpha virt. eigenvalues --    0.16990   0.17720   0.18833   0.19981   0.21280

 Mulliken charges:
               1
     1  C   -0.462307
     2  C    0.353599
     3  N   -0.432123
     4  N   -0.138298
     5  N   -0.117454
     6  C   -0.055022
     7  N   -0.281533
     8  C   -0.081870
     9  N   -0.510897
    10  H    0.129567
    11  H    0.152907
    12  H    0.150548
    13  H    0.221299
    14  H    0.112114
    15  H    0.102143
    16  H    0.229467
    17  H    0.085882
    18  H    0.083498
    19  H    0.230709
    20  H    0.227772
 Sum of Mulliken charges =  -0.00000

 Dipole moment (field-independent basis, Debye):
    X=             -0.5137    Y=             -1.8826    Z=             -1.2174  Tot=              2.3000
 Quadrupole moment (field-independent basis, Debye-Ang):
   XX=            -39.4865   YY=            -54.5537   ZZ=            -56.5575
   XY=             -5.6813   XZ=              4.7263   YZ=             -0.7574

  Exact polarizability: 117.709  -0.556  71.361   4.212   2.599  62.901
 Approx polarizability: 136.743   1.455 108.634   3.135   8.216  99.678

                      1                      2                      3
                      A                      A                      A
 Frequencies --     28.7734                62.5331                79.2755
 Red. masses --      3.6131                 2.1497                 4.0304
 Frc consts  --      0.0018                 0.0050                 0.0149
 IR Inten    --      2.2456                 2.5743                 0.4216

                      4                      5                      6
                      A                      A                      A
 Frequencies --    101.1976               137.0423               140.5540
 Red. masses --      3.8051                 1.1355                 3.0833
 Frc consts  --      0.0230                 0.0126                 0.0359
 IR Inten    --      6.9198                 0.0715                 1.9126

                      7                      8                      9
                      A                      A                      A
 Frequencies --    206.6547               222.3767               274.6543
 Red. masses --      3.2014                 3.4525                 1.3646
 Frc consts  --      0.0806                 0.1006                 0.0606
 IR Inten    --      4.3248                 1.6327                37.6951

                     10                     11                     12
                      A                      A                      A
 Frequencies --    320.0927               436.8478               468.2021
 Red. masses --      2.9346                 3.7157                 3.1633
 Frc consts  --      0.1772                 0.4178                 0.4086
 IR Inten    --      4.8118                 3.2130                 5.3914

                     13                     14                     15
                      A                      A                      A
 Frequencies --    527.0568               584.8776               642.8305
 Red. masses --      3.9147                 3.6721                 2.7402
 Frc consts  --      0.6407                 0.7401                 0.6671
 IR Inten    --     29.1504                 7.1735                 8.5867

                     16                     17                     18
                      A                      A                      A
 Frequencies --    813.2106               850.7236               861.0393
 Red. masses --      1.4302                 1.8124                 1.2601
 Frc consts  --      0.5572                 0.7728                 0.5504
 IR Inten    --     66.9729                10.1272               168.5779

                     19                     20                     21
                      A                      A                      A
 Frequencies --    927.1581               945.4105               981.3415
 Red. masses --      2.2723                 1.8350                 1.5127
 Frc consts  --      1.1508                 0.9663                 0.8583
 IR Inten    --     14.0954                17.4458                 4.1438

                     22                     23                     24
                      A                      A                      A
 Frequencies --   1016.7457              1041.8792              1076.2611
 Red. masses --      2.0048                 2.1061                 1.8638
 Frc consts  --      1.2211                 1.3470                 1.2720
 IR Inten    --     15.2578                 5.3598                18.7935

                     25                     26                     27
                      A                      A                      A
 Frequencies --   1085.4779              1095.6330              1164.0865
 Red. masses --      1.5351                 2.6934                 2.5867
 Frc consts  --      1.0657                 1.9049                 2.0653
 IR Inten    --     74.2706                 5.3891                99.3291

                     28                     29                     30
                      A                      A                      A
 Frequencies --   1193.8786              1211.9342              1261.6969
 Red. masses --      1.8964                 1.4069                 1.3619
 Frc consts  --      1.5926                 1.2175                 1.2773
 IR Inten    --     10.4025                 0.5769                12.8365

                     31                     32                     33
                      A                      A                      A
 Frequencies --   1326.1243              1347.9957              1369.4056
 Red. masses --      1.2665                 1.8624                 1.2824
 Frc consts  --      1.3122                 1.9939                 1.4169
 IR Inten    --     13.1089                74.0325                36.0820

                     34                     35                     36
                      A                      A                      A
 Frequencies --   1399.6518              1438.8217              1467.8515
 Red. masses --      1.3192                 1.3252                 1.0464
 Frc consts  --      1.5227                 1.6164                 1.3283
 IR Inten    --     21.9394                 1.2421                 6.6550

                     37                     38                     39
                      A                      A                      A
 Frequencies --   1479.7607              1482.5852              1499.0103
 Red. masses --      1.0680                 1.3361                 1.0986
 Frc consts  --      1.3779                 1.7303                 1.4545
 IR Inten    --     15.1376               115.3311                 2.3713

                     40                     41                     42
                      A                      A                      A
 Frequencies --   1539.0226              1643.5479              1665.1811
 Red. masses --      1.0858                 1.1004                12.6833
 Frc consts  --      1.5153                 1.7513                20.7207
 IR Inten    --      1.2349                29.7321                12.6786

                     43                     44                     45
                      A                      A                      A
 Frequencies --   1728.8501              2900.0782              2917.8718
 Red. masses --      8.6505                 1.0684                 1.0612
 Frc consts  --     15.2338                 5.2943                 5.3234
 IR Inten    --     90.6137                44.3357               108.4344

                     46                     47                     48
                      A                      A                      A
 Frequencies --   2937.6904              3038.4191              3042.1114
 Red. masses --      1.0982                 1.0363                 1.0887
 Frc consts  --      5.5840                 5.6366                 5.9362
 IR Inten    --     80.5627                 5.3920                28.1143

                     49                     50                     51
                      A                      A                      A
 Frequencies --   3101.9653              3134.9369              3452.6586
 Red. masses --      1.0980                 1.1030                 1.0747
 Frc consts  --      6.2251                 6.3867                 7.5479
 IR Inten    --      5.7358                12.9994                 1.7958

                     52                     53                     54
                      A                      A                      A
 Frequencies --   3498.7971              3518.5102              3585.5420
 Red. masses --      1.0492                 1.0732                 1.0926
 Frc consts  --      7.5674                 7.8277                 8.2757
 IR Inten    --      0.1724                 2.8850                 0.6093

 - Thermochemistry -
 -------------------
 Temperature   298.150 Kelvin.  Pressure   1.00000 Atm.
 Atom     1 has atomic number  6 and mass  12.00000

 Molecular mass:   129.10145 amu.
 Principal axes and moments of inertia in atomic units:
                           1         2         3
     Eigenvalues --   339.613153403.488043534.79978
           X            0.99991  -0.01242   0.00484
           Y            0.01250   0.99977  -0.01735
           Z           -0.00462   0.01741   0.99984
 This molecule is an asymmetric top.
 Rotational symmetry number  1.
 Rotational temperatures (Kelvin)      0.25504     0.02545     0.02450
 Rotational constants (GHZ):           5.31411     0.53026     0.51056
 Zero-point vibrational energy     444268.2 (Joules/Mol)
                                  106.18264 (Kcal/Mol)
 Warning -- explicit consideration of  14 degrees of freedom as
           vibrations may cause significant error
 Vibrational temperatures:     41.40    89.97   114.06   145.60   197.17
          (Kelvin)            202.23   297.33   319.95   395.17   460.54
                              628.53   673.64   758.32   841.51   924.89
                             1170.03  1224.00  1238.84  1333.97  1360.23
                             1411.93  1462.87  1499.03  1548.50  1561.76
                             1576.37  1674.86  1717.72  1743.70  1815.30
                             1908.00  1939.47  1970.27  2013.79  2070.14
                             2111.91  2129.05  2133.11  2156.74  2214.31
                             2364.70  2395.82  2487.43  4172.57  4198.17
                             4226.68  4371.61  4376.92  4463.04  4510.47
                             4967.61  5033.99  5062.35  5158.80

 Zero-point correction=                           0.169213 (Hartree/Particle)
 Thermal correction to Energy=                    0.180149
 Thermal correction to Enthalpy=                  0.181093
 Thermal correction to Gibbs Free Energy=         0.131186
 Sum of electronic and zero-point Energies=           -432.582107
 Sum of electronic and thermal Energies=              -432.571171
 Sum of electronic and thermal Enthalpies=            -432.570227
 Sum of electronic and thermal Free Energies=         -432.620133

                     E (Thermal)             CV                S
                      KCal/Mol        Cal/Mol-Kelvin    Cal/Mol-Kelvin
 Total                  113.045             37.073            105.037
 Electronic               0.000              0.000              0.000
 Translational            0.889              2.981             40.479
 Rotational               0.889              2.981             29.792
 Vibrational            111.267             31.112             34.765
 Vibration     1          0.593              1.984              5.912
 Vibration     2          0.597              1.972              4.376
 Vibration     3          0.600              1.963              3.909
 Vibration     4          0.604              1.948              3.431
 Vibration     5          0.614              1.916              2.845
 Vibration     6          0.615              1.913              2.796
 Vibration     7          0.641              1.830              2.073
 Vibration     8          0.648              1.807              1.940
 Vibration     9          0.677              1.720              1.567
 Vibration    10          0.706              1.635              1.310
 Vibration    11          0.797              1.390              0.837
 Vibration    12          0.825              1.321              0.743
 Vibration    13          0.882              1.190              0.594
 Vibration    14          0.942              1.064              0.476

                           ! Non-Optimized Parameters !
 Normal termination of Gaussian 16 at Tue Jun  1 06:58:18 2021.
