 Gaussian 16, Revision A.03,
 Gaussian 16:  ES64L-G16RevA.03 25-Dec-2016

 -----------------------------
 # opt freq b3lyp/6-31g(2df,p)
 -----------------------------

 -------------------
 Title Card Required
 -------------------
 Symbolic Z-matrix:
 Charge =  0 Multiplicity = 1

 SCF Done:  E(RB3LYP) =  -432.763470497     A.U. after   14 cycles
 SCF Done:  E(RB3LYP) =  -432.774420180     A.U. after   13 cycles
 SCF Done:  E(RB3LYP) =  -432.776563292     A.U. after   12 cycles
 SCF Done:  E(RB3LYP) =  -432.777037916     A.U. after   11 cycles
 SCF Done:  E(RB3LYP) =  -432.777790165     A.U. after   12 cycles
 SCF Done:  E(RB3LYP) =  -432.778154168     A.U. after   12 cycles
 SCF Done:  E(RB3LYP) =  -432.778310127     A.U. after   11 cycles
 SCF Done:  E(RB3LYP) =  -432.778435953     A.U. after   12 cycles
 SCF Done:  E(RB3LYP) =  -432.778494824     A.U. after   12 cycles
 SCF Done:  E(RB3LYP) =  -432.778555771     A.U. after   12 cycles
 SCF Done:  E(RB3LYP) =  -432.779941267     A.U. after   11 cycles
 SCF Done:  E(RB3LYP) =  -432.779828644     A.U. after   12 cycles
 SCF Done:  E(RB3LYP) =  -432.780033050     A.U. after   12 cycles
 SCF Done:  E(RB3LYP) =  -432.780099713     A.U. after   10 cycles
 SCF Done:  E(RB3LYP) =  -432.780125726     A.U. after   11 cycles
 SCF Done:  E(RB3LYP) =  -432.780129335     A.U. after    7 cycles
 SCF Done:  E(RB3LYP) =  -432.780130416     A.U. after    8 cycles
 SCF Done:  E(RB3LYP) =  -432.780130571     A.U. after    7 cycles
 SCF Done:  E(RB3LYP) =  -432.780130623     A.U. after    7 cycles
 Optimization completed.
    -- Stationary point found.
 Normal termination of Gaussian 16 at Mon May 31 14:02:04 2021.

 ----------------------------------------------------------------------
 #N Geom=AllCheck Guess=TCheck SCRF=Check GenChk RB3LYP/6-31G(2df,p) Fr
 eq
 ----------------------------------------------------------------------

 Structure from the checkpoint file:  "CCpdNpCpdNpNCNN.chk"
 -------------------
 Title Card Required
 -------------------
 Charge =  0 Multiplicity = 1

                         Standard orientation:
 ---------------------------------------------------------------------
 Center     Atomic      Atomic             Coordinates (Angstroms)
 Number     Number       Type             X           Y           Z
 ---------------------------------------------------------------------
      1          6           0        3.143682    0.796979    0.201863
      2          6           0        2.052421   -0.239704    0.090379
      3          7           0        2.206560   -1.493470    0.251462
      4          6           0        0.653721    0.252641   -0.221106
      5          7           0        0.303257    1.487399   -0.306089
      6          7           0       -0.247262   -0.750355   -0.409850
      7          6           0       -1.645038   -0.487838   -0.618382
      8          7           0       -2.317129   -0.078424    0.621760
      9          7           0       -3.677342    0.307593    0.412858
     10          1           0        4.105574    0.318501    0.398856
     11          1           0        2.935023    1.500479    1.015005
     12          1           0        3.227364    1.381170   -0.720616
     13          1           0        3.175799   -1.731227    0.469716
     14          1           0        1.098806    2.106996   -0.187395
     15          1           0        0.067260   -1.670727   -0.143641
     16          1           0       -2.123564   -1.405108   -0.978662
     17          1           0       -1.736496    0.282273   -1.403153
     18          1           0       -1.836335    0.748331    0.965398
     19          1           0       -4.229672   -0.544519    0.370568
     20          1           0       -3.789058    0.772146   -0.493580
 ---------------------------------------------------------------------

 SCF Done:  E(RB3LYP) =  -432.780130623     A.U. after    1 cycles

 The electronic state is 1-A.
 Alpha  occ. eigenvalues --  -14.33686 -14.33292 -14.32481 -14.32299 -14.29372
 Alpha  occ. eigenvalues --  -10.25422 -10.25372 -10.22970 -10.20703  -0.97173
 Alpha  occ. eigenvalues --   -0.94156  -0.90948  -0.85847  -0.75749  -0.74607
 Alpha  occ. eigenvalues --   -0.67411  -0.61406  -0.57579  -0.50408  -0.49268
 Alpha  occ. eigenvalues --   -0.48491  -0.47006  -0.45841  -0.44968  -0.44744
 Alpha  occ. eigenvalues --   -0.41500  -0.39915  -0.38016  -0.37379  -0.31255
 Alpha  occ. eigenvalues --   -0.29343  -0.25732  -0.25220  -0.22614  -0.22062
 Alpha virt. eigenvalues --   -0.04431   0.06943   0.07865   0.09335   0.10743
 Alpha virt. eigenvalues --    0.11976   0.13904   0.14696   0.16205   0.16344
 Alpha virt. eigenvalues --    0.17309   0.17493   0.19344   0.21355   0.22346

 Mulliken charges:
               1
     1  C   -0.490186
     2  C    0.283564
     3  N   -0.475311
     4  C    0.326178
     5  N   -0.549982
     6  N   -0.298156
     7  C   -0.088375
     8  N   -0.281617
     9  N   -0.465747
    10  H    0.127966
    11  H    0.154005
    12  H    0.152404
    13  H    0.225373
    14  H    0.212724
    15  H    0.264112
    16  H    0.098319
    17  H    0.104264
    18  H    0.247462
    19  H    0.237000
    20  H    0.216004
 Sum of Mulliken charges =  -0.00000

 Dipole moment (field-independent basis, Debye):
    X=              3.0878    Y=             -0.4554    Z=             -1.0426  Tot=              3.2908
 Quadrupole moment (field-independent basis, Debye-Ang):
   XX=            -43.5969   YY=            -55.1874   ZZ=            -56.7536
   XY=              5.6365   XZ=              7.3687   YZ=              0.8139

  Exact polarizability: 103.083   0.001  85.244   5.151  -1.962  53.624
 Approx polarizability: 121.174  -4.524 151.946   6.650  -4.926  82.997

                      1                      2                      3
                      A                      A                      A
 Frequencies --     51.0995                62.0778                84.5157
 Red. masses --      5.0406                 3.7675                 4.4404
 Frc consts  --      0.0078                 0.0086                 0.0187
 IR Inten    --      2.1555                 5.7409                 1.8895

                      4                      5                      6
                      A                      A                      A
 Frequencies --    104.1776               180.6406               222.3716
 Red. masses --      2.2339                 1.0394                 3.2011
 Frc consts  --      0.0143                 0.0200                 0.0933
 IR Inten    --      4.7348                 0.5719                11.8423

                      7                      8                      9
                      A                      A                      A
 Frequencies --    316.0321               316.6461               355.7737
 Red. masses --      3.9171                 2.9417                 2.8170
 Frc consts  --      0.2305                 0.1738                 0.2101
 IR Inten    --      2.8840                12.7599                11.3361

                     10                     11                     12
                      A                      A                      A
 Frequencies --    368.0531               413.2921               509.5607
 Red. masses --      1.2912                 3.7249                 1.7663
 Frc consts  --      0.1031                 0.3749                 0.2702
 IR Inten    --     15.2691                 7.6771                25.0370

                     13                     14                     15
                      A                      A                      A
 Frequencies --    520.4875               541.0670               622.8593
 Red. masses --      3.3861                 1.9391                 3.1635
 Frc consts  --      0.5405                 0.3345                 0.7231
 IR Inten    --     19.2212                39.4148                 4.6190

                     16                     17                     18
                      A                      A                      A
 Frequencies --    699.2076               801.5344               810.1735
 Red. masses --      2.6520                 1.3589                 1.7524
 Frc consts  --      0.7639                 0.5144                 0.6777
 IR Inten    --      0.8997                18.9647               110.5365

                     19                     20                     21
                      A                      A                      A
 Frequencies --    840.6564               920.1129               950.1867
 Red. masses --      2.2993                 1.3833                 2.1163
 Frc consts  --      0.9574                 0.6900                 1.1257
 IR Inten    --     43.7542                58.3244                22.2475

                     22                     23                     24
                      A                      A                      A
 Frequencies --    975.2790              1041.2999              1075.3127
 Red. masses --      1.5185                 1.7034                 1.6477
 Frc consts  --      0.8510                 1.0882                 1.1226
 IR Inten    --     47.0805                 6.8740                 9.8701

                     25                     26                     27
                      A                      A                      A
 Frequencies --   1081.7005              1107.7322              1121.7245
 Red. masses --      2.4507                 1.7719                 2.3054
 Frc consts  --      1.6895                 1.2810                 1.7091
 IR Inten    --      2.8713                80.2370               104.7849

                     28                     29                     30
                      A                      A                      A
 Frequencies --   1182.5135              1188.0324              1262.9017
 Red. masses --      2.0549                 1.8780                 1.2430
 Frc consts  --      1.6930                 1.5617                 1.1681
 IR Inten    --     45.6039                13.8466                 6.8875

                     31                     32                     33
                      A                      A                      A
 Frequencies --   1297.5422              1354.0494              1388.4599
 Red. masses --      1.4199                 1.2538                 1.3375
 Frc consts  --      1.4085                 1.3544                 1.5192
 IR Inten    --     16.4497                21.0863                19.2285

                     34                     35                     36
                      A                      A                      A
 Frequencies --   1405.0974              1413.4234              1471.7522
 Red. masses --      1.3271                 1.5786                 1.0456
 Frc consts  --      1.5437                 1.8581                 1.3344
 IR Inten    --     18.9642               109.2269                 7.0029

                     37                     38                     39
                      A                      A                      A
 Frequencies --   1485.8981              1489.4657              1521.5041
 Red. masses --      1.0687                 1.0965                 1.1414
 Frc consts  --      1.3902                 1.4333                 1.5568
 IR Inten    --     13.5781                 5.6724                17.0608

                     40                     41                     42
                      A                      A                      A
 Frequencies --   1559.6749              1678.2308              1679.4586
 Red. masses --      2.1840                 1.4150                 2.7846
 Frc consts  --      3.1301                 2.3480                 4.6275
 IR Inten    --    168.7616                78.3890               118.3802

                     43                     44                     45
                      A                      A                      A
 Frequencies --   1719.2733              2960.7117              3037.8082
 Red. masses --      8.7071                 1.0683                 1.0362
 Frc consts  --     15.1641                 5.5174                 5.6342
 IR Inten    --     16.5620                51.7452                 3.3950

                     46                     47                     48
                      A                      A                      A
 Frequencies --   3059.5914              3100.3599              3127.7322
 Red. masses --      1.0933                 1.0992                 1.1020
 Frc consts  --      6.0300                 6.2253                 6.3519
 IR Inten    --     39.2135                 5.2325                13.7580

                     49                     50                     51
                      A                      A                      A
 Frequencies --   3369.4858              3454.2141              3506.6684
 Red. masses --      1.0563                 1.0752                 1.0768
 Frc consts  --      7.0661                 7.5584                 7.8011
 IR Inten    --     22.1369                 0.7358                 4.7002

                     52                     53                     54
                      A                      A                      A
 Frequencies --   3526.9875              3540.5591              3626.4918
 Red. masses --      1.0811                 1.0743                 1.0768
 Frc consts  --      7.9239                 7.9348                 8.3435
 IR Inten    --      1.4771                 1.2943                73.6537

 - Thermochemistry -
 -------------------
 Temperature   298.150 Kelvin.  Pressure   1.00000 Atm.
 Atom     1 has atomic number  6 and mass  12.00000

 Molecular mass:   129.10145 amu.
 Principal axes and moments of inertia in atomic units:
                           1         2         3
     Eigenvalues --   449.110172346.596812622.14562
           X            0.99985   0.01367   0.01092
           Y           -0.01379   0.99984   0.01127
           Z           -0.01077  -0.01142   0.99988
 This molecule is an asymmetric top.
 Rotational symmetry number  1.
 Warning -- assumption of classical behavior for rotation
           may cause significant error
 Rotational temperatures (Kelvin)      0.19286     0.03691     0.03303
 Rotational constants (GHZ):           4.01848     0.76909     0.68827
 Zero-point vibrational energy     451599.0 (Joules/Mol)
                                  107.93476 (Kcal/Mol)
 Warning -- explicit consideration of  14 degrees of freedom as
           vibrations may cause significant error
 Vibrational temperatures:     73.52    89.32   121.60   149.89   259.90
          (Kelvin)            319.94   454.70   455.58   511.88   529.55
                              594.64   733.14   748.87   778.47   896.16
                             1006.00  1153.23  1165.66  1209.52  1323.84
                             1367.11  1403.21  1498.20  1547.14  1556.33
                             1593.78  1613.91  1701.37  1709.31  1817.03
                             1866.87  1948.18  1997.68  2021.62  2033.60
                             2117.52  2137.88  2143.01  2189.11  2244.02
                             2414.60  2416.37  2473.65  4259.80  4370.73
                             4402.07  4460.73  4500.11  4847.94  4969.84
                             5045.31  5074.55  5094.07  5217.71

 Zero-point correction=                           0.172005 (Hartree/Particle)
 Thermal correction to Energy=                    0.182376
 Thermal correction to Enthalpy=                  0.183321
 Thermal correction to Gibbs Free Energy=         0.135641
 Sum of electronic and zero-point Energies=           -432.608126
 Sum of electronic and thermal Energies=              -432.597754
 Sum of electronic and thermal Enthalpies=            -432.596810
 Sum of electronic and thermal Free Energies=         -432.644490

                     E (Thermal)             CV                S
                      KCal/Mol        Cal/Mol-Kelvin    Cal/Mol-Kelvin
 Total                  114.443             37.042            100.351
 Electronic               0.000              0.000              0.000
 Translational            0.889              2.981             40.479
 Rotational               0.889              2.981             29.404
 Vibrational            112.665             31.080             30.468
 Vibration     1          0.595              1.977              4.774
 Vibration     2          0.597              1.972              4.390
 Vibration     3          0.601              1.960              3.783
 Vibration     4          0.605              1.946              3.375
 Vibration     5          0.630              1.866              2.322
 Vibration     6          0.648              1.807              1.940
 Vibration     7          0.703              1.643              1.331
 Vibration     8          0.704              1.642              1.327
 Vibration     9          0.731              1.563              1.141
 Vibration    10          0.741              1.538              1.088
 Vibration    11          0.777              1.441              0.915
 Vibration    12          0.865              1.229              0.635
 Vibration    13          0.875              1.205              0.609
 Vibration    14          0.896              1.159              0.563

 Optimization completed.
    -- Stationary point found.
 Normal termination of Gaussian 16 at Mon May 31 14:38:10 2021.
