 Gaussian 16, Revision A.03,
 Gaussian 16:  ES64L-G16RevA.03 25-Dec-2016

 -----------------------------
 # opt freq b3lyp/6-31g(2df,p)
 -----------------------------

 -------------------
 Title Card Required
 -------------------
 Symbolic Z-matrix:
 Charge =  0 Multiplicity = 1

 SCF Done:  E(RB3LYP) =  -431.536262168     A.U. after   14 cycles
 SCF Done:  E(RB3LYP) =  -431.543513639     A.U. after   12 cycles
 SCF Done:  E(RB3LYP) =  -431.544449394     A.U. after   11 cycles
 SCF Done:  E(RB3LYP) =  -431.544492549     A.U. after   10 cycles
 SCF Done:  E(RB3LYP) =  -431.544500648     A.U. after    8 cycles
 Optimization completed.
    -- Stationary point found.
 Normal termination of Gaussian 16 at Mon May 31 15:52:57 2021.

 ----------------------------------------------------------------------
 #N Geom=AllCheck Guess=TCheck SCRF=Check GenChk RB3LYP/6-31G(2df,p) Fr
 eq
 ----------------------------------------------------------------------

 Structure from the checkpoint file:  "CCpdNpCNCdNNdN.chk"
 -------------------
 Title Card Required
 -------------------
 Charge =  0 Multiplicity = 1

                         Standard orientation:
 ---------------------------------------------------------------------
 Center     Atomic      Atomic             Coordinates (Angstroms)
 Number     Number       Type             X           Y           Z
 ---------------------------------------------------------------------
      1          6           0        3.844727   -0.603511   -0.000000
      2          6           0        2.541547    0.155990   -0.000001
      3          7           0        2.402757    1.418091    0.000001
      4          6           0        1.289834   -0.702303    0.000002
      5          7           0        0.104807    0.114757   -0.000002
      6          6           0       -1.145561   -0.365403   -0.000002
      7          7           0       -2.184428    0.409047    0.000000
      8          7           0       -3.325208   -0.385677    0.000002
      9          7           0       -4.362314    0.309344    0.000001
     10          1           0        4.698060    0.078410    0.000002
     11          1           0        3.915952   -1.252716   -0.880092
     12          1           0        3.915949   -1.252719    0.880089
     13          1           0        3.302023    1.901416    0.000001
     14          1           0        1.326623   -1.363766    0.879396
     15          1           0        1.326624   -1.363772   -0.879388
     16          1           0        0.263419    1.115819   -0.000001
     17          1           0       -1.248908   -1.454791   -0.000002
     18          1           0       -5.132325   -0.375450   -0.000011
 ---------------------------------------------------------------------

 SCF Done:  E(RB3LYP) =  -431.544500648     A.U. after    1 cycles

 The electronic state is 1-A.
 Alpha  occ. eigenvalues --  -14.37861 -14.36159 -14.33684 -14.32939 -14.31366
 Alpha  occ. eigenvalues --  -10.26390 -10.25410 -10.24899 -10.21594  -1.02663
 Alpha  occ. eigenvalues --   -0.96980  -0.92687  -0.86876  -0.77279  -0.72947
 Alpha  occ. eigenvalues --   -0.64738  -0.61019  -0.56586  -0.52583  -0.49147
 Alpha  occ. eigenvalues --   -0.48240  -0.47296  -0.44593  -0.43993  -0.43306
 Alpha  occ. eigenvalues --   -0.41395  -0.40409  -0.39297  -0.33952  -0.32396
 Alpha  occ. eigenvalues --   -0.29107  -0.27981  -0.22470  -0.20233
 Alpha virt. eigenvalues --   -0.02271  -0.01834   0.05121   0.06103   0.09329
 Alpha virt. eigenvalues --    0.10568   0.12440   0.13473   0.14061   0.14275
 Alpha virt. eigenvalues --    0.15657   0.16713   0.19704   0.21987   0.25017

 Mulliken charges:
               1
     1  C   -0.464770
     2  C    0.311913
     3  N   -0.456096
     4  C   -0.191978
     5  N   -0.288003
     6  C    0.180491
     7  N   -0.232286
     8  N   -0.103200
     9  N   -0.289706
    10  H    0.134920
    11  H    0.146877
    12  H    0.146877
    13  H    0.227821
    14  H    0.132207
    15  H    0.132207
    16  H    0.279166
    17  H    0.102003
    18  H    0.231557
 Sum of Mulliken charges =  -0.00000

 Dipole moment (field-independent basis, Debye):
    X=              6.5754    Y=             -3.2407    Z=             -0.0000  Tot=              7.3306
 Quadrupole moment (field-independent basis, Debye-Ang):
   XX=            -48.3907   YY=            -54.1790   ZZ=            -53.3430
   XY=              5.3370   XZ=              0.0001   YZ=              0.0000

  Exact polarizability: 148.037  -3.869  74.442  -0.000  -0.000  45.662
 Approx polarizability: 192.237 -12.793 123.070  -0.000   0.000  71.455

                      1                      2                      3
                      A                      A                      A
 Frequencies --     30.7206                81.4701                91.9965
 Red. masses --      3.8784                 1.5796                 4.7758
 Frc consts  --      0.0022                 0.0062                 0.0238
 IR Inten    --      0.8922                 2.0669                 0.2237

                      4                      5                      6
                      A                      A                      A
 Frequencies --    106.8276               133.4646               175.9051
 Red. masses --      4.0119                 1.7175                 4.1291
 Frc consts  --      0.0270                 0.0180                 0.0753
 IR Inten    --      0.6654                 1.6595                 0.3329

                      7                      8                      9
                      A                      A                      A
 Frequencies --    243.1083               307.7241               328.3313
 Red. masses --      5.1430                 4.2668                 3.1182
 Frc consts  --      0.1791                 0.2381                 0.1981
 IR Inten    --     14.3336                 0.1219                 1.0485

                     10                     11                     12
                      A                      A                      A
 Frequencies --    418.8238               453.9206               522.8449
 Red. masses --      4.0746                 2.1537                 3.3343
 Frc consts  --      0.4211                 0.2615                 0.5370
 IR Inten    --      8.4169                 2.7954                24.5820

                     13                     14                     15
                      A                      A                      A
 Frequencies --    619.3375               663.5436               705.2630
 Red. masses --      3.7858                 1.2611                 5.7627
 Frc consts  --      0.8556                 0.3271                 1.6888
 IR Inten    --      5.5196                69.3310                10.2108

                     16                     17                     18
                      A                      A                      A
 Frequencies --    813.8226               870.4094               963.0752
 Red. masses --      1.1878                 3.3235                 1.1732
 Frc consts  --      0.4635                 1.4835                 0.6411
 IR Inten    --     22.5549                 9.6697                29.9223

                     19                     20                     21
                      A                      A                      A
 Frequencies --    970.6968              1019.6236              1022.0667
 Red. masses --      2.2445                 4.0355                 1.3545
 Frc consts  --      1.2461                 2.4719                 0.8336
 IR Inten    --     74.8331               262.0607                38.5289

                     22                     23                     24
                      A                      A                      A
 Frequencies --   1046.7363              1088.5511              1099.7706
 Red. masses --      1.3677                 1.8011                 1.4660
 Frc consts  --      0.8829                 1.2574                 1.0447
 IR Inten    --      1.5134                 6.1514                63.5071

                     25                     26                     27
                      A                      A                      A
 Frequencies --   1179.0434              1257.9267              1290.0127
 Red. masses --      3.7326                 1.0796                 1.4033
 Frc consts  --      3.0572                 1.0065                 1.3759
 IR Inten    --     21.5342                 1.4491                41.5759

                     28                     29                     30
                      A                      A                      A
 Frequencies --   1315.0137              1364.7294              1396.1307
 Red. masses --      1.3126                 1.6391                 1.6411
 Frc consts  --      1.3373                 1.7986                 1.8847
 IR Inten    --    114.0997                22.7468                 0.5965

                     31                     32                     33
                      A                      A                      A
 Frequencies --   1411.2190              1465.8695              1473.7873
 Red. masses --      1.6556                 1.7268                 1.0449
 Frc consts  --      1.9426                 2.1862                 1.3372
 IR Inten    --     22.0673                 8.0573                 9.1722

                     34                     35                     36
                      A                      A                      A
 Frequencies --   1479.0286              1484.6862              1504.7328
 Red. masses --      1.0643                 1.4438                 1.2423
 Frc consts  --      1.3717                 1.8752                 1.6573
 IR Inten    --     12.8270                13.5587                98.4464

                     37                     38                     39
                      A                      A                      A
 Frequencies --   1575.5345              1714.7848              1743.1277
 Red. masses --     10.0165                 6.1254                 8.0693
 Frc consts  --     14.6494                10.6122                14.4459
 IR Inten    --    496.4277               589.4345                61.9266

                     40                     41                     42
                      A                      A                      A
 Frequencies --   2983.6370              3002.2228              3033.7198
 Red. masses --      1.0573                 1.1020                 1.0368
 Frc consts  --      5.5453                 5.8523                 5.6221
 IR Inten    --     56.9368                18.5079                 8.8274

                     43                     44                     45
                      A                      A                      A
 Frequencies --   3083.0581              3092.6360              3128.3060
 Red. masses --      1.0875                 1.0989                 1.1018
 Frc consts  --      6.0902                 6.1923                 6.3531
 IR Inten    --     21.7718                 8.5205                13.7945

                     46                     47                     48
                      A                      A                      A
 Frequencies --   3323.0397              3465.2911              3559.7205
 Red. masses --      1.0731                 1.0753                 1.0755
 Frc consts  --      6.9814                 7.6082                 8.0298
 IR Inten    --      6.1272                 1.6728               179.9622

 - Thermochemistry -
 -------------------
 Temperature   298.150 Kelvin.  Pressure   1.00000 Atm.
 Atom     1 has atomic number  6 and mass  12.00000

 Molecular mass:   127.08580 amu.
 Principal axes and moments of inertia in atomic units:
                           1         2         3
     Eigenvalues --   226.307423419.480543623.50449
           X            0.99999  -0.00348   0.00000
           Y            0.00348   0.99999   0.00000
           Z           -0.00000  -0.00000   1.00000
 This molecule is an asymmetric top.
 Rotational symmetry number  1.
 Rotational temperatures (Kelvin)      0.38273     0.02533     0.02390
 Rotational constants (GHZ):           7.97473     0.52778     0.49807
 Zero-point vibrational energy     383434.8 (Joules/Mol)
                                   91.64312 (Kcal/Mol)
 Warning -- explicit consideration of  13 degrees of freedom as
           vibrations may cause significant error
 Vibrational temperatures:     44.20   117.22   132.36   153.70   192.03
          (Kelvin)            253.09   349.78   442.75   472.40   602.59
                              653.09   752.26   891.09   954.69  1014.72
                             1170.91  1252.32  1385.65  1396.62  1467.01
                             1470.53  1506.02  1566.18  1582.32  1696.38
                             1809.88  1856.04  1892.01  1963.54  2008.72
                             2030.43  2109.06  2120.45  2127.99  2136.13
                             2164.97  2266.84  2467.19  2507.97  4292.79
                             4319.53  4364.85  4435.83  4449.61  4500.93
                             4781.11  4985.78  5121.64

 Zero-point correction=                           0.146043 (Hartree/Particle)
 Thermal correction to Energy=                    0.156186
 Thermal correction to Enthalpy=                  0.157130
 Thermal correction to Gibbs Free Energy=         0.109290
 Sum of electronic and zero-point Energies=           -431.398458
 Sum of electronic and thermal Energies=              -431.388315
 Sum of electronic and thermal Enthalpies=            -431.387371
 Sum of electronic and thermal Free Energies=         -431.435211

                     E (Thermal)             CV                S
                      KCal/Mol        Cal/Mol-Kelvin    Cal/Mol-Kelvin
 Total                   98.008             34.485            100.687
 Electronic               0.000              0.000              0.000
 Translational            0.889              2.981             40.432
 Rotational               0.889              2.981             29.418
 Vibrational             96.230             28.524             30.837
 Vibration     1          0.594              1.984              5.782
 Vibration     2          0.600              1.962              3.855
 Vibration     3          0.602              1.955              3.617
 Vibration     4          0.606              1.944              3.326
 Vibration     5          0.613              1.920              2.896
 Vibration     6          0.628              1.872              2.371
 Vibration     7          0.659              1.774              1.780
 Vibration     8          0.698              1.659              1.375
 Vibration     9          0.712              1.619              1.268
 Vibration    10          0.782              1.429              0.896
 Vibration    11          0.812              1.352              0.784
 Vibration    12          0.878              1.199              0.603
 Vibration    13          0.979              0.991              0.418

 Optimization completed.
    -- Stationary point found.
 Normal termination of Gaussian 16 at Mon May 31 16:12:49 2021.
