 Gaussian 16, Revision A.03,
 Gaussian 16:  ES64L-G16RevA.03 25-Dec-2016

 -----------------------------
 # opt freq b3lyp/6-31g(2df,p)
 -----------------------------

 -------------------
 Title Card Required
 -------------------
 Symbolic Z-matrix:
 Charge =  0 Multiplicity = 1

 SCF Done:  E(RB3LYP) =  -435.168117050     A.U. after   12 cycles
 SCF Done:  E(RB3LYP) =  -435.176105474     A.U. after   10 cycles
 SCF Done:  E(RB3LYP) =  -435.178007243     A.U. after   10 cycles
 SCF Done:  E(RB3LYP) =  -435.179027385     A.U. after   11 cycles
 SCF Done:  E(RB3LYP) =  -435.179858393     A.U. after   11 cycles
 SCF Done:  E(RB3LYP) =  -435.180139048     A.U. after   10 cycles
 SCF Done:  E(RB3LYP) =  -435.180269527     A.U. after   10 cycles
 SCF Done:  E(RB3LYP) =  -435.180308323     A.U. after    9 cycles
 SCF Done:  E(RB3LYP) =  -435.180323202     A.U. after    9 cycles
 SCF Done:  E(RB3LYP) =  -435.180331303     A.U. after    8 cycles
 SCF Done:  E(RB3LYP) =  -435.185964080     A.U. after   11 cycles
 SCF Done:  E(RB3LYP) =  -435.185807189     A.U. after   11 cycles
 SCF Done:  E(RB3LYP) =  -435.186403191     A.U. after   10 cycles
 SCF Done:  E(RB3LYP) =  -435.186456640     A.U. after   10 cycles
 SCF Done:  E(RB3LYP) =  -435.186470484     A.U. after    8 cycles
 SCF Done:  E(RB3LYP) =  -435.186474505     A.U. after    8 cycles
 SCF Done:  E(RB3LYP) =  -435.186475342     A.U. after    7 cycles
 SCF Done:  E(RB3LYP) =  -435.186475655     A.U. after    7 cycles
 SCF Done:  E(RB3LYP) =  -435.186475693     A.U. after    6 cycles
 Optimization completed.
    -- Stationary point found.
 Normal termination of Gaussian 16 at Mon May 31 17:44:12 2021.

 ----------------------------------------------------------------------
 #N Geom=AllCheck Guess=TCheck SCRF=Check GenChk RB3LYP/6-31G(2df,p) Fr
 eq
 ----------------------------------------------------------------------

 Structure from the checkpoint file:  "CCpNNpNCNCN.chk"
 -------------------
 Title Card Required
 -------------------
 Charge =  0 Multiplicity = 1

                         Standard orientation:
 ---------------------------------------------------------------------
 Center     Atomic      Atomic             Coordinates (Angstroms)
 Number     Number       Type             X           Y           Z
 ---------------------------------------------------------------------
      1          6           0       -1.336778    1.527055   -0.437795
      2          6           0       -1.410138    0.067708    0.027303
      3          7           0       -2.765312   -0.454093   -0.196627
      4          7           0       -3.769516    0.039995    0.684101
      5          7           0       -0.498613   -0.832079   -0.662983
      6          6           0        0.780392   -1.107219   -0.050555
      7          7           0        1.732160    0.006273   -0.077374
      8          6           0        3.094741   -0.366101    0.267735
      9          7           0        3.908909    0.841764    0.244051
     10          1           0       -2.053886    2.151588    0.104363
     11          1           0       -1.580117    1.583363   -1.504229
     12          1           0       -0.337407    1.941752   -0.285958
     13          1           0       -1.150823    0.024201    1.105110
     14          1           0       -2.721339   -1.461824   -0.086600
     15          1           0       -4.117856    0.915033    0.305653
     16          1           0       -3.378410    0.251995    1.606598
     17          1           0       -0.375149   -0.546427   -1.628005
     18          1           0        1.247767   -1.935385   -0.598034
     19          1           0        0.584541   -1.474981    0.971940
     20          1           0        1.442158    0.739082    0.563893
     21          1           0        3.407014   -1.149122   -0.446739
     22          1           0        3.193343   -0.805445    1.278511
     23          1           0        3.961563    1.191206   -0.708318
     24          1           0        4.855902    0.633288    0.543504
 ---------------------------------------------------------------------

 SCF Done:  E(RB3LYP) =  -435.186475693     A.U. after    1 cycles

 The electronic state is 1-A.
 Alpha  occ. eigenvalues --  -14.32715 -14.32291 -14.31170 -14.30996 -14.30856
 Alpha  occ. eigenvalues --  -10.23227 -10.23004 -10.22998 -10.17114  -0.95683
 Alpha  occ. eigenvalues --   -0.92861  -0.89214  -0.83964  -0.76313  -0.71280
 Alpha  occ. eigenvalues --   -0.65502  -0.61998  -0.59203  -0.52012  -0.49968
 Alpha  occ. eigenvalues --   -0.48689  -0.47842  -0.47535  -0.43558  -0.42763
 Alpha  occ. eigenvalues --   -0.42078  -0.40930  -0.39427  -0.38119  -0.37347
 Alpha  occ. eigenvalues --   -0.35870  -0.35351  -0.25117  -0.24342  -0.22814
 Alpha  occ. eigenvalues --   -0.22505  -0.22274
 Alpha virt. eigenvalues --    0.07675   0.08496   0.09689   0.10756   0.11399
 Alpha virt. eigenvalues --    0.12600   0.13939   0.14651   0.15487   0.16673
 Alpha virt. eigenvalues --    0.16790   0.18228   0.19091   0.19282   0.21104

 Mulliken charges:
               1
     1  C   -0.380965
     2  C    0.090992
     3  N   -0.266668
     4  N   -0.472503
     5  N   -0.284793
     6  C   -0.128858
     7  N   -0.283775
     8  C   -0.079907
     9  N   -0.511071
    10  H    0.102927
    11  H    0.120972
    12  H    0.121036
    13  H    0.046498
    14  H    0.224443
    15  H    0.241053
    16  H    0.211463
    17  H    0.218740
    18  H    0.103026
    19  H    0.089766
    20  H    0.218001
    21  H    0.083635
    22  H    0.080925
    23  H    0.228680
    24  H    0.226384
 Sum of Mulliken charges =  -0.00000

 Dipole moment (field-independent basis, Debye):
    X=              2.4183    Y=              0.4644    Z=              0.5933  Tot=              2.5330
 Quadrupole moment (field-independent basis, Debye-Ang):
   XX=            -57.7442   YY=            -57.3604   ZZ=            -55.2503
   XY=             -7.1545   XZ=             -3.4634   YZ=             -0.8176

  Exact polarizability: 106.563  -2.308  77.470  -1.069  -0.398  71.251
 Approx polarizability: 123.460  -2.858 111.063  -0.072   1.503 110.517

                      1                      2                      3
                      A                      A                      A
 Frequencies --     32.4057                52.8156                89.1601
 Red. masses --      3.8783                 2.7409                 2.3842
 Frc consts  --      0.0024                 0.0045                 0.0112
 IR Inten    --      0.7243                 1.7183                 2.3481

                      4                      5                      6
                      A                      A                      A
 Frequencies --    103.8615               146.1688               199.4371
 Red. masses --      3.0045                 2.1553                 2.9823
 Frc consts  --      0.0191                 0.0271                 0.0699
 IR Inten    --      0.9740                 4.0714                 4.6479

                      7                      8                      9
                      A                      A                      A
 Frequencies --    226.6559               259.0744               282.4125
 Red. masses --      1.1217                 2.8073                 1.7720
 Frc consts  --      0.0340                 0.1110                 0.0833
 IR Inten    --      3.9754                 4.8324                24.2921

                     10                     11                     12
                      A                      A                      A
 Frequencies --    287.3864               349.6660               371.1829
 Red. masses --      1.5152                 1.6223                 1.8929
 Frc consts  --      0.0737                 0.1169                 0.1537
 IR Inten    --     24.6036                14.6500                19.2037

                     13                     14                     15
                      A                      A                      A
 Frequencies --    451.7517               479.3970               503.4670
 Red. masses --      2.8364                 1.9233                 3.1578
 Frc consts  --      0.3411                 0.2604                 0.4716
 IR Inten    --      2.1062                 5.0346                 3.5878

                     16                     17                     18
                      A                      A                      A
 Frequencies --    567.7567               716.8459               808.6843
 Red. masses --      3.0223                 1.8605                 1.8467
 Frc consts  --      0.5740                 0.5633                 0.7116
 IR Inten    --     15.1028                88.4473               100.9783

                     19                     20                     21
                      A                      A                      A
 Frequencies --    822.1250               858.6386               865.8846
 Red. masses --      1.2667                 1.5416                 1.3309
 Frc consts  --      0.5044                 0.6696                 0.5879
 IR Inten    --     59.2288                90.6975                79.2188

                     22                     23                     24
                      A                      A                      A
 Frequencies --    939.8088               953.7272               977.4646
 Red. masses --      1.7833                 1.6484                 1.5544
 Frc consts  --      0.9280                 0.8834                 0.8750
 IR Inten    --     39.2358                71.0329                 3.4271

                     25                     26                     27
                      A                      A                      A
 Frequencies --   1001.0721              1059.9792              1085.9973
 Red. masses --      1.3623                 3.5046                 2.0949
 Frc consts  --      0.8044                 2.3200                 1.4557
 IR Inten    --     10.4793                 2.8998                44.1515

                     28                     29                     30
                      A                      A                      A
 Frequencies --   1112.3553              1145.8934              1158.5793
 Red. masses --      2.6700                 2.3654                 2.2141
 Frc consts  --      1.9465                 1.8300                 1.7510
 IR Inten    --     60.3040                82.9833                 8.8078

                     31                     32                     33
                      A                      A                      A
 Frequencies --   1175.6294              1184.6530              1202.7112
 Red. masses --      2.7957                 2.3158                 1.6100
 Frc consts  --      2.2766                 1.9149                 1.3721
 IR Inten    --     66.8027                11.3462                37.2921

                     34                     35                     36
                      A                      A                      A
 Frequencies --   1238.4377              1290.8088              1302.1623
 Red. masses --      1.8336                 1.2339                 1.3432
 Frc consts  --      1.6570                 1.2113                 1.3419
 IR Inten    --     36.7971                34.6255                11.6281

                     37                     38                     39
                      A                      A                      A
 Frequencies --   1334.6827              1372.4313              1378.2689
 Red. masses --      1.2399                 1.2571                 1.2261
 Frc consts  --      1.3014                 1.3951                 1.3723
 IR Inten    --     13.2883                12.2289                22.5093

                     40                     41                     42
                      A                      A                      A
 Frequencies --   1390.6161              1403.5250              1447.4724
 Red. masses --      1.2184                 1.2661                 1.2535
 Frc consts  --      1.3882                 1.4694                 1.5473
 IR Inten    --     16.7848                14.5582                 4.6912

                     43                     44                     45
                      A                      A                      A
 Frequencies --   1475.2329              1479.0750              1487.0644
 Red. masses --      1.1121                 1.2364                 1.1160
 Frc consts  --      1.4259                 1.5936                 1.4540
 IR Inten    --      2.3344                62.9962                 1.5492

                     46                     47                     48
                      A                      A                      A
 Frequencies --   1493.9572              1497.7854              1519.2516
 Red. masses --      1.1463                 1.0657                 1.2332
 Frc consts  --      1.5074                 1.4086                 1.6770
 IR Inten    --     35.5790                 9.2537                45.3733

                     49                     50                     51
                      A                      A                      A
 Frequencies --   1539.1431              1642.4572              1681.9048
 Red. masses --      1.0912                 1.1001                 1.0667
 Frc consts  --      1.5230                 1.7485                 1.7778
 IR Inten    --      0.0172                30.3956                14.0821

                     52                     53                     54
                      A                      A                      A
 Frequencies --   2883.7736              2917.4934              2937.8355
 Red. masses --      1.0805                 1.0593                 1.0993
 Frc consts  --      5.2943                 5.3122                 5.5901
 IR Inten    --     62.8480                78.6820                85.1137

                     55                     56                     57
                      A                      A                      A
 Frequencies --   2950.9821              3036.7347              3039.1881
 Red. masses --      1.0707                 1.0368                 1.0893
 Frc consts  --      5.4937                 5.6332                 5.9282
 IR Inten    --     84.4612                21.1580                41.2013

                     58                     59                     60
                      A                      A                      A
 Frequencies --   3103.8845              3126.2507              3374.2263
 Red. masses --      1.1010                 1.1005                 1.0568
 Frc consts  --      6.2498                 6.3368                 7.0893
 IR Inten    --     28.3162                25.2261                21.2344

                     61                     62                     63
                      A                      A                      A
 Frequencies --   3495.1648              3509.9890              3518.3916
 Red. masses --      1.0491                 1.0733                 1.0769
 Frc consts  --      7.5511                 7.7907                 7.8541
 IR Inten    --      0.3192                 0.6026                 1.0696

                     64                     65                     66
                      A                      A                      A
 Frequencies --   3538.7440              3539.6898              3581.5492
 Red. masses --      1.0735                 1.0812                 1.0926
 Frc consts  --      7.9207                 7.9816                 8.2572
 IR Inten    --      1.6839                 0.2569                 0.3809

 - Thermochemistry -
 -------------------
 Temperature   298.150 Kelvin.  Pressure   1.00000 Atm.
 Atom     1 has atomic number  6 and mass  12.00000

 Molecular mass:   133.13275 amu.
 Principal axes and moments of inertia in atomic units:
                           1         2         3
     Eigenvalues --   435.875893119.824413337.42041
           X            0.99993  -0.01183  -0.00187
           Y            0.01177   0.99949  -0.02972
           Z            0.00222   0.02970   0.99956
 This molecule is an asymmetric top.
 Rotational symmetry number  1.
 Warning -- assumption of classical behavior for rotation
           may cause significant error
 Rotational temperatures (Kelvin)      0.19871     0.02776     0.02595
 Rotational constants (GHZ):           4.14049     0.57848     0.54076
 Zero-point vibrational energy     574212.4 (Joules/Mol)
                                  137.24007 (Kcal/Mol)
 Warning -- explicit consideration of  16 degrees of freedom as
           vibrations may cause significant error
 Vibrational temperatures:     46.62    75.99   128.28   149.43   210.30
          (Kelvin)            286.95   326.11   372.75   406.33   413.48
                              503.09   534.05   649.97   689.75   724.38
                              816.88  1031.38  1163.52  1182.85  1235.39
                             1245.81  1352.18  1372.20  1406.35  1440.32
                             1525.07  1562.51  1600.43  1648.69  1666.94
                             1691.47  1704.45  1730.43  1781.84  1857.19
                             1873.52  1920.31  1974.62  1983.02  2000.79
                             2019.36  2082.59  2122.53  2128.06  2139.55
                             2149.47  2154.98  2185.86  2214.48  2363.13
                             2419.89  4149.11  4197.62  4226.89  4245.81
                             4369.18  4372.71  4465.80  4497.98  4854.76
                             5028.76  5050.09  5062.18  5091.46  5092.82
                             5153.05

 Zero-point correction=                           0.218706 (Hartree/Particle)
 Thermal correction to Energy=                    0.230252
 Thermal correction to Enthalpy=                  0.231196
 Thermal correction to Gibbs Free Energy=         0.180635
 Sum of electronic and zero-point Energies=           -434.967770
 Sum of electronic and thermal Energies=              -434.956223
 Sum of electronic and thermal Enthalpies=            -434.955279
 Sum of electronic and thermal Free Energies=         -435.005841

                     E (Thermal)             CV                S
                      KCal/Mol        Cal/Mol-Kelvin    Cal/Mol-Kelvin
 Total                  144.486             41.194            106.416
 Electronic               0.000              0.000              0.000
 Translational            0.889              2.981             40.571
 Rotational               0.889              2.981             29.896
 Vibrational            142.708             35.232             35.948
 Vibration     1          0.594              1.983              5.676
 Vibration     2          0.596              1.976              4.709
 Vibration     3          0.602              1.957              3.678
 Vibration     4          0.605              1.946              3.381
 Vibration     5          0.617              1.907              2.722
 Vibration     6          0.638              1.841              2.138
 Vibration     7          0.650              1.800              1.905
 Vibration     8          0.668              1.747              1.668
 Vibration     9          0.681              1.706              1.519
 Vibration    10          0.685              1.697              1.489
 Vibration    11          0.727              1.576              1.168
 Vibration    12          0.743              1.531              1.075
 Vibration    13          0.810              1.357              0.790
 Vibration    14          0.836              1.296              0.712
 Vibration    15          0.859              1.242              0.650
 Vibration    16          0.924              1.101              0.509

 Optimization completed.
    -- Stationary point found.
 Normal termination of Gaussian 16 at Mon May 31 18:15:05 2021.
