 Gaussian 16, Revision A.03,
 Gaussian 16:  ES64L-G16RevA.03 25-Dec-2016

 -----------------------------
 # opt freq b3lyp/6-31g(2df,p)
 -----------------------------

 -------------------
 Title Card Required
 -------------------
 Symbolic Z-matrix:
 Charge =  0 Multiplicity = 1

 SCF Done:  E(RB3LYP) =  -394.643745585     A.U. after   14 cycles
 SCF Done:  E(RB3LYP) =  -394.650225572     A.U. after   14 cycles
 SCF Done:  E(RB3LYP) =  -394.652737716     A.U. after   13 cycles
 SCF Done:  E(RB3LYP) =  -394.654065164     A.U. after   13 cycles
 SCF Done:  E(RB3LYP) =  -394.655388097     A.U. after   14 cycles
 SCF Done:  E(RB3LYP) =  -394.655910577     A.U. after   14 cycles
 SCF Done:  E(RB3LYP) =  -394.656343340     A.U. after   13 cycles
 SCF Done:  E(RB3LYP) =  -394.656506062     A.U. after   13 cycles
 SCF Done:  E(RB3LYP) =  -394.656612161     A.U. after   13 cycles
 SCF Done:  E(RB3LYP) =  -394.656713539     A.U. after   13 cycles
 SCF Done:  E(RB3LYP) =  -394.657525138     A.U. after   13 cycles
 SCF Done:  E(RB3LYP) =  -394.657900566     A.U. after   11 cycles
 SCF Done:  E(RB3LYP) =  -394.657994509     A.U. after   13 cycles
 SCF Done:  E(RB3LYP) =  -394.658164570     A.U. after   12 cycles
 SCF Done:  E(RB3LYP) =  -394.658269924     A.U. after   11 cycles
 SCF Done:  E(RB3LYP) =  -394.658288328     A.U. after   11 cycles
 SCF Done:  E(RB3LYP) =  -394.658293084     A.U. after    9 cycles
 SCF Done:  E(RB3LYP) =  -394.658294226     A.U. after    8 cycles
 SCF Done:  E(RB3LYP) =  -394.658294332     A.U. after    7 cycles
 Optimization completed.
    -- Stationary point found.
 Normal termination of Gaussian 16 at Mon May 31 14:07:54 2021.

 ----------------------------------------------------------------------
 #N Geom=AllCheck Guess=TCheck SCRF=Check GenChk RB3LYP/6-31G(2df,p) Fr
 eq
 ----------------------------------------------------------------------

 Structure from the checkpoint file:  "CCpNpNCNNdN.chk"
 -------------------
 Title Card Required
 -------------------
 Charge =  0 Multiplicity = 1

                         Standard orientation:
 ---------------------------------------------------------------------
 Center     Atomic      Atomic             Coordinates (Angstroms)
 Number     Number       Type             X           Y           Z
 ---------------------------------------------------------------------
      1          6           0        2.676628   -1.328465   -0.081304
      2          6           0        1.888265   -0.069184    0.295193
      3          7           0        2.361472    1.161584   -0.341520
      4          7           0        0.493804   -0.248248   -0.095601
      5          6           0       -0.425821    0.724859    0.486322
      6          7           0       -1.729371    0.668231   -0.128809
      7          7           0       -2.585669   -0.244713    0.348389
      8          7           0       -3.519005   -0.521705   -0.444013
      9          1           0        3.737271   -1.198106    0.152906
     10          1           0        2.576528   -1.527740   -1.153670
     11          1           0        2.319023   -2.208463    0.466322
     12          1           0        1.997692    0.095978    1.384176
     13          1           0        2.397736    1.018830   -1.348079
     14          1           0        3.304894    1.373295   -0.031162
     15          1           0        0.183754   -1.185996    0.138529
     16          1           0        0.006240    1.714192    0.322403
     17          1           0       -0.589986    0.588234    1.565588
     18          1           0       -1.799026    0.843298   -1.130187
     19          1           0       -4.117176   -1.182829    0.062787
 ---------------------------------------------------------------------

 SCF Done:  E(RB3LYP) =  -394.658294332     A.U. after    1 cycles

 The electronic state is 1-A.
 Alpha  occ. eigenvalues --  -14.40080 -14.36366 -14.33252 -14.31606 -14.31227
 Alpha  occ. eigenvalues --  -10.24140 -10.23491 -10.18069  -1.05431  -0.93641
 Alpha  occ. eigenvalues --   -0.89231  -0.84289  -0.73452  -0.68395  -0.61867
 Alpha  occ. eigenvalues --   -0.60087  -0.53645  -0.51557  -0.47578  -0.46729
 Alpha  occ. eigenvalues --   -0.43595  -0.43051  -0.41172  -0.40250  -0.39006
 Alpha  occ. eigenvalues --   -0.38035  -0.37443  -0.35887  -0.25271  -0.23872
 Alpha  occ. eigenvalues --   -0.23401  -0.23268
 Alpha virt. eigenvalues --   -0.00747   0.07138   0.10787   0.11346   0.12844
 Alpha virt. eigenvalues --    0.13074   0.13942   0.14823   0.15465   0.16970
 Alpha virt. eigenvalues --    0.18045   0.18382   0.21498   0.22683   0.24529

 Mulliken charges:
               1
     1  C   -0.404174
     2  C    0.085375
     3  N   -0.487946
     4  N   -0.291558
     5  C   -0.096875
     6  N   -0.169399
     7  N   -0.063342
     8  N   -0.362503
     9  H    0.111799
    10  H    0.121912
    11  H    0.112897
    12  H    0.063515
    13  H    0.224469
    14  H    0.224278
    15  H    0.218742
    16  H    0.138675
    17  H    0.105382
    18  H    0.230081
    19  H    0.238672
 Sum of Mulliken charges =  -0.00000

 Dipole moment (field-independent basis, Debye):
    X=              2.8468    Y=             -0.7689    Z=              0.4140  Tot=              2.9778
 Quadrupole moment (field-independent basis, Debye-Ang):
   XX=            -47.8221   YY=            -48.8303   ZZ=            -49.0760
   XY=              1.7711   XZ=             -2.2531   YZ=             -1.7348

  Exact polarizability:  98.714  11.123  65.184   2.706  -1.308  59.223
 Approx polarizability: 123.429  22.262  97.281   7.429  -0.741  92.181

                      1                      2                      3
                      A                      A                      A
 Frequencies --     49.5364                60.2644               114.6303
 Red. masses --      3.5407                 4.3513                 3.2404
 Frc consts  --      0.0051                 0.0093                 0.0251
 IR Inten    --      0.9138                 1.0386                 0.9189

                      4                      5                      6
                      A                      A                      A
 Frequencies --    185.8127               208.4896               250.0123
 Red. masses --      3.1956                 3.5580                 1.1105
 Frc consts  --      0.0650                 0.0911                 0.0409
 IR Inten    --      3.8798                 3.6404                 0.4974

                      7                      8                      9
                      A                      A                      A
 Frequencies --    278.1715               323.4962               370.2532
 Red. masses --      1.1368                 2.7585                 2.7369
 Frc consts  --      0.0518                 0.1701                 0.2211
 IR Inten    --     38.4317                 7.2622                 3.8370

                     10                     11                     12
                      A                      A                      A
 Frequencies --    445.8106               471.8596               544.3357
 Red. masses --      2.9484                 2.8205                 2.3758
 Frc consts  --      0.3453                 0.3700                 0.4148
 IR Inten    --      1.3895                 8.2796                 2.5820

                     13                     14                     15
                      A                      A                      A
 Frequencies --    657.8100               677.4101               776.5498
 Red. masses --      2.0311                 1.9629                 1.3291
 Frc consts  --      0.5178                 0.5307                 0.4722
 IR Inten    --     86.6249                67.5094               102.8382

                     16                     17                     18
                      A                      A                      A
 Frequencies --    844.9689               893.5918               930.2526
 Red. masses --      2.4063                 1.3585                 1.2021
 Frc consts  --      1.0122                 0.6391                 0.6129
 IR Inten    --     45.0494               104.7660                40.8171

                     19                     20                     21
                      A                      A                      A
 Frequencies --    947.4527               994.3698              1030.9115
 Red. masses --      1.6484                 1.7068                 1.7816
 Frc consts  --      0.8718                 0.9943                 1.1156
 IR Inten    --     10.4719                10.2067                 7.4884

                     22                     23                     24
                      A                      A                      A
 Frequencies --   1067.0687              1128.6124              1161.6826
 Red. masses --      3.0701                 2.2245                 2.8515
 Frc consts  --      2.0596                 1.6694                 2.2673
 IR Inten    --     33.3731                35.4822               177.0222

                     25                     26                     27
                      A                      A                      A
 Frequencies --   1191.3781              1205.7602              1250.5430
 Red. masses --      2.5180                 1.9715                 1.6211
 Frc consts  --      2.1058                 1.6888                 1.4937
 IR Inten    --     55.4423                81.6980                33.3870

                     28                     29                     30
                      A                      A                      A
 Frequencies --   1306.1396              1353.4670              1398.2055
 Red. masses --      1.2314                 1.2312                 1.2264
 Frc consts  --      1.2377                 1.3289                 1.4127
 IR Inten    --     42.8092                29.0055                 4.1122

                     31                     32                     33
                      A                      A                      A
 Frequencies --   1408.5418              1427.2654              1471.9229
 Red. masses --      1.3258                 1.2921                 1.4465
 Frc consts  --      1.5498                 1.5508                 1.8465
 IR Inten    --     11.9830                33.1983                 6.0430

                     34                     35                     36
                      A                      A                      A
 Frequencies --   1476.5171              1492.4702              1500.6127
 Red. masses --      1.1829                 1.1501                 1.1510
 Frc consts  --      1.5194                 1.5093                 1.5271
 IR Inten    --     21.3023                 2.3597                 5.6115

                     37                     38                     39
                      A                      A                      A
 Frequencies --   1503.5233              1505.6525              1581.8989
 Red. masses --      1.1650                 1.3127                 5.4126
 Frc consts  --      1.5516                 1.7534                 7.9803
 IR Inten    --      8.3316                29.6913               159.4397

                     40                     41                     42
                      A                      A                      A
 Frequencies --   1638.7817              2913.3033              2999.3998
 Red. masses --      1.1058                 1.0817                 1.0694
 Frc consts  --      1.7497                 5.4089                 5.6684
 IR Inten    --     26.5207                71.6996                48.8799

                     43                     44                     45
                      A                      A                      A
 Frequencies --   3025.2943              3094.2704              3112.0294
 Red. masses --      1.0360                 1.1000                 1.1017
 Frc consts  --      5.5863                 6.2055                 6.2867
 IR Inten    --     18.4259                29.5386                25.4745

                     46                     47                     48
                      A                      A                      A
 Frequencies --   3113.3281              3385.3277              3474.3888
 Red. masses --      1.0934                 1.0746                 1.0738
 Frc consts  --      6.2445                 7.2557                 7.6373
 IR Inten    --      7.5295                 0.9104                 2.3612

                     49                     50                     51
                      A                      A                      A
 Frequencies --   3480.3339              3525.2060              3571.1111
 Red. masses --      1.0493                 1.0740                 1.0919
 Frc consts  --      7.4881                 7.8636                 8.2043
 IR Inten    --      0.1674                 0.4119                 0.3527

 - Thermochemistry -
 -------------------
 Temperature   298.150 Kelvin.  Pressure   1.00000 Atm.
 Atom     1 has atomic number  6 and mass  12.00000

 Molecular mass:   117.10145 amu.
 Principal axes and moments of inertia in atomic units:
                           1         2         3
     Eigenvalues --   343.971692170.885142374.56094
           X            0.99997  -0.00723  -0.00165
           Y            0.00721   0.99994  -0.00784
           Z            0.00171   0.00783   0.99997
 This molecule is an asymmetric top.
 Rotational symmetry number  1.
 Rotational temperatures (Kelvin)      0.25181     0.03990     0.03648
 Rotational constants (GHZ):           5.24677     0.83134     0.76003
 Zero-point vibrational energy     435560.5 (Joules/Mol)
                                  104.10145 (Kcal/Mol)
 Warning -- explicit consideration of  12 degrees of freedom as
           vibrations may cause significant error
 Vibrational temperatures:     71.27    86.71   164.93   267.34   299.97
          (Kelvin)            359.71   400.23   465.44   532.71   641.42
                              678.90   783.18   946.44   974.64  1117.28
                             1215.72  1285.68  1338.43  1363.17  1430.68
                             1483.25  1535.27  1623.82  1671.40  1714.13
                             1734.82  1799.25  1879.24  1947.34  2011.71
                             2026.58  2053.52  2117.77  2124.38  2147.33
                             2159.05  2163.23  2166.30  2276.00  2357.84
                             4191.59  4315.47  4352.72  4451.96  4477.52
                             4479.38  4870.73  4998.87  5007.42  5071.99
                             5138.03

 Zero-point correction=                           0.165896 (Hartree/Particle)
 Thermal correction to Energy=                    0.175407
 Thermal correction to Enthalpy=                  0.176352
 Thermal correction to Gibbs Free Energy=         0.130820
 Sum of electronic and zero-point Energies=           -394.492398
 Sum of electronic and thermal Energies=              -394.482887
 Sum of electronic and thermal Enthalpies=            -394.481943
 Sum of electronic and thermal Free Energies=         -394.527475

                     E (Thermal)             CV                S
                      KCal/Mol        Cal/Mol-Kelvin    Cal/Mol-Kelvin
 Total                  110.070             33.724             95.830
 Electronic               0.000              0.000              0.000
 Translational            0.889              2.981             40.189
 Rotational               0.889              2.981             28.963
 Vibrational            108.292             27.762             26.679
 Vibration     1          0.595              1.978              4.836
 Vibration     2          0.597              1.973              4.449
 Vibration     3          0.608              1.937              3.189
 Vibration     4          0.632              1.859              2.269
 Vibration     5          0.642              1.828              2.057
 Vibration     6          0.663              1.763              1.730
 Vibration     7          0.679              1.714              1.545
 Vibration     8          0.708              1.628              1.292
 Vibration     9          0.742              1.533              1.079
 Vibration    10          0.805              1.370              0.809
 Vibration    11          0.829              1.312              0.732
 Vibration    12          0.899              1.152              0.556

 Optimization completed.
    -- Stationary point found.
 Normal termination of Gaussian 16 at Mon May 31 14:34:08 2021.
