 Gaussian 16, Revision A.03,
 Gaussian 16:  ES64L-G16RevA.03 25-Dec-2016

 -----------------------------
 # opt freq b3lyp/6-31g(2df,p)
 -----------------------------

 -------------------
 Title Card Required
 -------------------
 Symbolic Z-matrix:
 Charge =  0 Multiplicity = 1

 SCF Done:  E(RB3LYP) =  -361.385943054     A.U. after   13 cycles
 SCF Done:  E(RB3LYP) =  -361.394308695     A.U. after   13 cycles
 SCF Done:  E(RB3LYP) =  -361.395396997     A.U. after   12 cycles
 SCF Done:  E(RB3LYP) =  -361.396549953     A.U. after   12 cycles
 SCF Done:  E(RB3LYP) =  -361.396667309     A.U. after    9 cycles
 SCF Done:  E(RB3LYP) =  -361.396842175     A.U. after    9 cycles
 SCF Done:  E(RB3LYP) =  -361.396302929     A.U. after   13 cycles
 SCF Done:  E(RB3LYP) =  -361.398180745     A.U. after   11 cycles
 SCF Done:  E(RB3LYP) =  -361.398430175     A.U. after   11 cycles
 SCF Done:  E(RB3LYP) =  -361.398595098     A.U. after   10 cycles
 SCF Done:  E(RB3LYP) =  -361.401770657     A.U. after   11 cycles
 SCF Done:  E(RB3LYP) =  -361.401922073     A.U. after   11 cycles
 SCF Done:  E(RB3LYP) =  -361.401984696     A.U. after   10 cycles
 SCF Done:  E(RB3LYP) =  -361.402007765     A.U. after    9 cycles
 SCF Done:  E(RB3LYP) =  -361.402015369     A.U. after    9 cycles
 SCF Done:  E(RB3LYP) =  -361.402016284     A.U. after    8 cycles
 SCF Done:  E(RB3LYP) =  -361.402016400     A.U. after    7 cycles
 SCF Done:  E(RB3LYP) =  -361.402016519     A.U. after    7 cycles
 SCF Done:  E(RB3LYP) =  -361.402016551     A.U. after    6 cycles
 Optimization completed.
    -- Stationary point found.
 Normal termination of Gaussian 16 at Mon May 31 21:33:48 2021.

 ----------------------------------------------------------------------
 #N Geom=AllCheck Guess=TCheck SCRF=Check GenChk RB3LYP/6-31G(2df,p) Fr
 eq
 ----------------------------------------------------------------------

 Structure from the checkpoint file:  "CCpNpCNpCpCtN.chk"
 -------------------
 Title Card Required
 -------------------
 Charge =  0 Multiplicity = 1

                         Standard orientation:
 ---------------------------------------------------------------------
 Center     Atomic      Atomic             Coordinates (Angstroms)
 Number     Number       Type             X           Y           Z
 ---------------------------------------------------------------------
      1          6           0       -2.687857   -0.805685   -0.428621
      2          6           0       -1.515988    0.143057   -0.129059
      3          7           0       -1.468306    0.650248    1.243999
      4          6           0       -0.196471   -0.561516   -0.477349
      5          7           0        0.996904    0.201493   -0.104544
      6          6           0        1.116319    1.589834   -0.544756
      7          6           0        2.106704   -0.482243    0.155110
      8          7           0        3.068739   -1.084373    0.414773
      9          1           0       -3.642352   -0.304982   -0.238228
     10          1           0       -2.640934   -1.695895    0.209317
     11          1           0       -2.688148   -1.136358   -1.473429
     12          1           0       -1.620687    1.019242   -0.783465
     13          1           0       -1.273190   -0.109077    1.891931
     14          1           0       -2.376829    1.022917    1.504230
     15          1           0       -0.194703   -0.788117   -1.554798
     16          1           0       -0.141667   -1.517896    0.053469
     17          1           0        0.337067    2.186624   -0.065466
     18          1           0        1.033675    1.678653   -1.637123
     19          1           0        2.090176    1.972636   -0.237981
 ---------------------------------------------------------------------

 SCF Done:  E(RB3LYP) =  -361.402016551     A.U. after    1 cycles

 The electronic state is 1-A.
 Alpha  occ. eigenvalues --  -14.37703 -14.32270 -14.29804 -10.23548 -10.23177
 Alpha  occ. eigenvalues --  -10.22528 -10.22283 -10.19114  -0.97348  -0.89940
 Alpha  occ. eigenvalues --   -0.86489  -0.76972  -0.72512  -0.69519  -0.60185
 Alpha  occ. eigenvalues --   -0.55173  -0.51666  -0.49615  -0.45984  -0.45411
 Alpha  occ. eigenvalues --   -0.42002  -0.41792  -0.40747  -0.39505  -0.37856
 Alpha  occ. eigenvalues --   -0.35633  -0.34654  -0.33631  -0.30845  -0.25251
 Alpha  occ. eigenvalues --   -0.22962
 Alpha virt. eigenvalues --    0.04921   0.05772   0.08445   0.09218   0.10769
 Alpha virt. eigenvalues --    0.11133   0.13194   0.13580   0.14873   0.16164
 Alpha virt. eigenvalues --    0.16282   0.17498   0.17897   0.18594   0.21095

 Mulliken charges:
               1
     1  C   -0.394078
     2  C    0.015149
     3  N   -0.499577
     4  C   -0.159560
     5  N   -0.133255
     6  C   -0.347815
     7  C    0.330223
     8  N   -0.382080
     9  H    0.115025
    10  H    0.117435
    11  H    0.119258
    12  H    0.089858
    13  H    0.229150
    14  H    0.228566
    15  H    0.111840
    16  H    0.128860
    17  H    0.155924
    18  H    0.121379
    19  H    0.153698
 Sum of Mulliken charges =  -0.00000

 Dipole moment (field-independent basis, Debye):
    X=             -5.2433    Y=              1.6771    Z=             -1.2081  Tot=              5.6359
 Quadrupole moment (field-independent basis, Debye-Ang):
   XX=            -60.1268   YY=            -49.6924   ZZ=            -47.9118
   XY=              7.5600   XZ=             -4.4967   YZ=             -0.9142

  Exact polarizability:  89.554  -5.903  68.951   4.422  -2.251  62.346
 Approx polarizability: 120.355 -17.342 102.251   9.288  -5.879  92.160

                      1                      2                      3
                      A                      A                      A
 Frequencies --     39.7387                88.1236               122.0639
 Red. masses --      4.5064                 2.7717                 2.7258
 Frc consts  --      0.0042                 0.0127                 0.0239
 IR Inten    --      3.7862                 1.5616                 6.8720

                      4                      5                      6
                      A                      A                      A
 Frequencies --    172.3320               220.0104               224.4078
 Red. masses --      1.7005                 1.5587                 1.9485
 Frc consts  --      0.0298                 0.0445                 0.0578
 IR Inten    --      5.6797                19.6253                 1.9971

                      7                      8                      9
                      A                      A                      A
 Frequencies --    244.0125               268.8749               323.3679
 Red. masses --      1.0459                 1.6831                 2.6127
 Frc consts  --      0.0367                 0.0717                 0.1610
 IR Inten    --      0.1480                16.5907                 0.4464

                     10                     11                     12
                      A                      A                      A
 Frequencies --    361.2027               451.5688               490.6249
 Red. masses --      2.7206                 2.1641                 3.0253
 Frc consts  --      0.2091                 0.2600                 0.4291
 IR Inten    --      2.9546                 2.7998                 8.7015

                     13                     14                     15
                      A                      A                      A
 Frequencies --    544.2986               638.8840               805.0962
 Red. masses --     11.1014                 6.2480                 3.8968
 Frc consts  --      1.9378                 1.5026                 1.4882
 IR Inten    --      8.6058                 2.0984                17.4067

                     16                     17                     18
                      A                      A                      A
 Frequencies --    831.0625               892.7079               926.7941
 Red. masses --      2.7559                 1.3386                 1.4422
 Frc consts  --      1.1215                 0.6285                 0.7299
 IR Inten    --     52.0126                74.7754                 7.0097

                     19                     20                     21
                      A                      A                      A
 Frequencies --    947.6660              1042.8660              1077.9683
 Red. masses --      1.6802                 1.5290                 1.7948
 Frc consts  --      0.8890                 0.9798                 1.2288
 IR Inten    --      0.6957                 6.0146                61.3867

                     22                     23                     24
                      A                      A                      A
 Frequencies --   1097.7860              1142.0199              1182.5785
 Red. masses --      2.7415                 1.2588                 1.6828
 Frc consts  --      1.9466                 0.9673                 1.3866
 IR Inten    --     22.1341                 1.5534                11.3275

                     25                     26                     27
                      A                      A                      A
 Frequencies --   1196.8544              1232.2730              1307.2029
 Red. masses --      2.1120                 3.1621                 1.6039
 Frc consts  --      1.7825                 2.8290                 1.6147
 IR Inten    --      7.3508                28.1763                11.0372

                     28                     29                     30
                      A                      A                      A
 Frequencies --   1345.6120              1378.6400              1403.1854
 Red. masses --      1.2232                 1.7664                 1.3231
 Frc consts  --      1.3049                 1.9781                 1.5349
 IR Inten    --      6.3126                 9.3720                 7.1786

                     31                     32                     33
                      A                      A                      A
 Frequencies --   1410.2289              1428.7368              1457.8988
 Red. masses --      1.3006                 1.4698                 1.1569
 Frc consts  --      1.5239                 1.7678                 1.4488
 IR Inten    --     12.0175                11.0246                 5.4474

                     34                     35                     36
                      A                      A                      A
 Frequencies --   1484.9210              1490.7366              1495.5904
 Red. masses --      1.0546                 1.0703                 1.0471
 Frc consts  --      1.3701                 1.4013                 1.3800
 IR Inten    --      2.6572                 4.9374                 4.3216

                     37                     38                     39
                      A                      A                      A
 Frequencies --   1502.5095              1515.9969              1657.5911
 Red. masses --      1.0949                 1.0652                 1.0914
 Frc consts  --      1.4563                 1.4424                 1.7667
 IR Inten    --     14.6612                10.4833                28.2033

                     40                     41                     42
                      A                      A                      A
 Frequencies --   2331.4294              2985.9712              3004.5772
 Red. masses --     12.4394                 1.0696                 1.0526
 Frc consts  --     39.8378                 5.6189                 5.5985
 IR Inten    --    210.8029                40.0969                26.5703

                     43                     44                     45
                      A                      A                      A
 Frequencies --   3012.8603              3024.3104              3073.4794
 Red. masses --      1.0787                 1.0356                 1.0938
 Frc consts  --      5.7689                 5.5808                 6.0876
 IR Inten    --     43.3396                23.3297                10.8160

                     46                     47                     48
                      A                      A                      A
 Frequencies --   3094.9350              3102.0949              3102.7518
 Red. masses --      1.1012                 1.1002                 1.0876
 Frc consts  --      6.2146                 6.2376                 6.1690
 IR Inten    --     38.5636                19.3631                19.9186

                     49                     50                     51
                      A                      A                      A
 Frequencies --   3150.5634              3481.5544              3562.8893
 Red. masses --      1.1029                 1.0491                 1.0923
 Frc consts  --      6.4498                 7.4921                 8.1694
 IR Inten    --      6.1910                 0.0442                 0.2855

 - Thermochemistry -
 -------------------
 Temperature   298.150 Kelvin.  Pressure   1.00000 Atm.
 Atom     1 has atomic number  6 and mass  12.00000

 Molecular mass:   113.09530 amu.
 Principal axes and moments of inertia in atomic units:
                           1         2         3
     Eigenvalues --   483.985881602.464771749.66763
           X            0.99932   0.03622  -0.00627
           Y           -0.03629   0.99929  -0.00980
           Z            0.00591   0.01002   0.99993
 This molecule is an asymmetric top.
 Rotational symmetry number  1.
 Warning -- assumption of classical behavior for rotation
           may cause significant error
 Rotational temperatures (Kelvin)      0.17896     0.05405     0.04950
 Rotational constants (GHZ):           3.72891     1.12623     1.03148
 Zero-point vibrational energy     432877.4 (Joules/Mol)
                                  103.46018 (Kcal/Mol)
 Warning -- explicit consideration of  13 degrees of freedom as
           vibrations may cause significant error
 Vibrational temperatures:     57.18   126.79   175.62   247.95   316.55
          (Kelvin)            322.87   351.08   386.85   465.25   519.69
                              649.71   705.90   783.12   919.21  1158.35
                             1195.71  1284.41  1333.45  1363.48  1500.45
                             1550.96  1579.47  1643.11  1701.47  1722.01
                             1772.97  1880.77  1936.04  1983.56  2018.87
                             2029.00  2055.63  2097.59  2136.47  2144.84
                             2151.82  2161.78  2181.18  2384.90  3354.41
                             4296.15  4322.92  4334.83  4351.31  4422.05
                             4452.92  4463.22  4464.17  4532.96  5009.18
                             5126.20

 Zero-point correction=                           0.164874 (Hartree/Particle)
 Thermal correction to Energy=                    0.174729
 Thermal correction to Enthalpy=                  0.175674
 Thermal correction to Gibbs Free Energy=         0.129741
 Sum of electronic and zero-point Energies=           -361.237142
 Sum of electronic and thermal Energies=              -361.227287
 Sum of electronic and thermal Enthalpies=            -361.226343
 Sum of electronic and thermal Free Energies=         -361.272276

                     E (Thermal)             CV                S
                      KCal/Mol        Cal/Mol-Kelvin    Cal/Mol-Kelvin
 Total                  109.644             34.361             96.674
 Electronic               0.000              0.000              0.000
 Translational            0.889              2.981             40.085
 Rotational               0.889              2.981             28.697
 Vibrational            107.867             28.399             27.892
 Vibration     1          0.594              1.981              5.272
 Vibration     2          0.601              1.958              3.701
 Vibration     3          0.610              1.931              3.067
 Vibration     4          0.626              1.877              2.410
 Vibration     5          0.647              1.811              1.959
 Vibration     6          0.649              1.804              1.923
 Vibration     7          0.659              1.773              1.773
 Vibration     8          0.673              1.730              1.603
 Vibration     9          0.708              1.629              1.293
 Vibration    10          0.735              1.552              1.117
 Vibration    11          0.810              1.357              0.791
 Vibration    12          0.846              1.271              0.682
 Vibration    13          0.899              1.152              0.556

 Optimization completed.
    -- Stationary point found.
 Normal termination of Gaussian 16 at Mon May 31 21:56:26 2021.
