 Gaussian 16, Revision A.03,
 Gaussian 16:  ES64L-G16RevA.03 25-Dec-2016

 -----------------------------
 # opt freq b3lyp/6-31g(2df,p)
 -----------------------------

 -------------------
 Title Card Required
 -------------------
 Symbolic Z-matrix:
 Charge =  0 Multiplicity = 1

 SCF Done:  E(RB3LYP) =  -435.169598905     A.U. after   12 cycles
 SCF Done:  E(RB3LYP) =  -435.180136082     A.U. after   11 cycles
 SCF Done:  E(RB3LYP) =  -435.182670841     A.U. after   11 cycles
 SCF Done:  E(RB3LYP) =  -435.185312543     A.U. after   11 cycles
 SCF Done:  E(RB3LYP) =  -435.187132918     A.U. after   11 cycles
 SCF Done:  E(RB3LYP) =  -435.189529959     A.U. after   11 cycles
 SCF Done:  E(RB3LYP) =  -435.191799466     A.U. after   11 cycles
 SCF Done:  E(RB3LYP) =  -435.193579128     A.U. after   10 cycles
 SCF Done:  E(RB3LYP) =  -435.193048357     A.U. after   11 cycles
 SCF Done:  E(RB3LYP) =  -435.194142623     A.U. after   11 cycles
 SCF Done:  E(RB3LYP) =  -435.196191661     A.U. after   11 cycles
 SCF Done:  E(RB3LYP) =  -435.197020945     A.U. after   11 cycles
 SCF Done:  E(RB3LYP) =  -435.197105773     A.U. after    9 cycles
 SCF Done:  E(RB3LYP) =  -435.197120795     A.U. after    8 cycles
 SCF Done:  E(RB3LYP) =  -435.197125726     A.U. after    8 cycles
 SCF Done:  E(RB3LYP) =  -435.197127172     A.U. after    7 cycles
 SCF Done:  E(RB3LYP) =  -435.197127877     A.U. after    7 cycles
 SCF Done:  E(RB3LYP) =  -435.197128193     A.U. after    7 cycles
 SCF Done:  E(RB3LYP) =  -435.197128258     A.U. after    6 cycles
 Optimization completed.
    -- Stationary point found.
 Normal termination of Gaussian 16 at Mon May 31 15:45:02 2021.

 ----------------------------------------------------------------------
 #N Geom=AllCheck Guess=TCheck SCRF=Check GenChk RB3LYP/6-31G(2df,p) Fr
 eq
 ----------------------------------------------------------------------

 Structure from the checkpoint file:  "CCpNppCNpNNCN.chk"
 -------------------
 Title Card Required
 -------------------
 Charge =  0 Multiplicity = 1

                         Standard orientation:
 ---------------------------------------------------------------------
 Center     Atomic      Atomic             Coordinates (Angstroms)
 Number     Number       Type             X           Y           Z
 ---------------------------------------------------------------------
      1          6           0        2.110249   -1.214409   -0.665489
      2          6           0        0.973374   -0.428640    0.007771
      3          7           0        1.027102   -0.486146    1.475791
      4          6           0        1.036498    1.064119   -0.383667
      5          7           0        2.268191    1.695659    0.107036
      6          7           0       -0.283916   -1.002840   -0.505315
      7          7           0       -1.463107   -0.647956    0.209013
      8          6           0       -2.292462    0.317072   -0.495927
      9          7           0       -3.498913    0.498178    0.302654
     10          1           0        3.083182   -0.831297   -0.346579
     11          1           0        2.041817   -1.160001   -1.756651
     12          1           0        2.065144   -2.271794   -0.377608
     13          1           0        1.725463    0.183194    1.791255
     14          1           0        1.320623   -1.407135    1.788421
     15          1           0        0.196158    1.570298    0.097856
     16          1           0        0.889733    1.136039   -1.470364
     17          1           0        2.152189    2.702149    0.145453
     18          1           0        3.037427    1.522794   -0.531607
     19          1           0       -0.206472   -2.014416   -0.449354
     20          1           0       -1.213540   -0.314038    1.139603
     21          1           0       -2.452018   -0.087303   -1.508365
     22          1           0       -1.835290    1.314800   -0.621298
     23          1           0       -4.021219   -0.372974    0.318805
     24          1           0       -4.094653    1.202571   -0.119949
 ---------------------------------------------------------------------

 SCF Done:  E(RB3LYP) =  -435.197128258     A.U. after    1 cycles

 The electronic state is 1-A.
 Alpha  occ. eigenvalues --  -14.32214 -14.31607 -14.31071 -14.29736 -14.29568
 Alpha  occ. eigenvalues --  -10.23180 -10.21006 -10.19999 -10.17429  -0.95855
 Alpha  occ. eigenvalues --   -0.89542  -0.86979  -0.84827  -0.76741  -0.70605
 Alpha  occ. eigenvalues --   -0.67357  -0.60568  -0.55812  -0.50843  -0.49345
 Alpha  occ. eigenvalues --   -0.48772  -0.47674  -0.45977  -0.43268  -0.41446
 Alpha  occ. eigenvalues --   -0.40690  -0.40264  -0.38942  -0.38148  -0.37046
 Alpha  occ. eigenvalues --   -0.36015  -0.32980  -0.25077  -0.24248  -0.23139
 Alpha  occ. eigenvalues --   -0.22822  -0.20201
 Alpha virt. eigenvalues --    0.06791   0.09422   0.09818   0.11931   0.13076
 Alpha virt. eigenvalues --    0.14136   0.15112   0.16136   0.16326   0.16656
 Alpha virt. eigenvalues --    0.17840   0.18564   0.20198   0.20859   0.21312

 Mulliken charges:
               1
     1  C   -0.438387
     2  C    0.274111
     3  N   -0.529745
     4  C   -0.156651
     5  N   -0.517697
     6  N   -0.300468
     7  N   -0.278976
     8  C   -0.051023
     9  N   -0.510771
    10  H    0.117687
    11  H    0.121585
    12  H    0.106342
    13  H    0.237126
    14  H    0.214342
    15  H    0.114843
    16  H    0.091643
    17  H    0.234016
    18  H    0.230605
    19  H    0.216424
    20  H    0.227534
    21  H    0.081775
    22  H    0.068882
    23  H    0.225246
    24  H    0.221557
 Sum of Mulliken charges =  -0.00000

 Dipole moment (field-independent basis, Debye):
    X=              1.7122    Y=              0.5785    Z=             -1.3565  Tot=              2.2597
 Quadrupole moment (field-independent basis, Debye-Ang):
   XX=            -50.0892   YY=            -50.4508   ZZ=            -59.9399
   XY=             -0.1276   XZ=              2.2447   YZ=             -3.1775

  Exact polarizability:  97.909  -2.833  80.956  -0.568  -0.545  71.470
 Approx polarizability: 119.774  -2.481 115.806  -0.819   0.269 108.208

                      1                      2                      3
                      A                      A                      A
 Frequencies --     63.6870                82.9395               128.7636
 Red. masses --      2.8353                 3.2615                 2.3560
 Frc consts  --      0.0068                 0.0132                 0.0230
 IR Inten    --      2.4965                 1.2333                 2.3553

                      4                      5                      6
                      A                      A                      A
 Frequencies --    139.4539               216.5041               231.1087
 Red. masses --      2.5089                 2.2415                 1.0591
 Frc consts  --      0.0287                 0.0619                 0.0333
 IR Inten    --      3.0058                11.5301                13.5333

                      7                      8                      9
                      A                      A                      A
 Frequencies --    268.0099               269.8679               300.7007
 Red. masses --      1.7443                 1.3183                 1.7147
 Frc consts  --      0.0738                 0.0566                 0.0913
 IR Inten    --     20.2223                 7.2255                 0.6972

                     10                     11                     12
                      A                      A                      A
 Frequencies --    315.9829               333.9237               363.7115
 Red. masses --      2.5739                 2.0716                 1.9583
 Frc consts  --      0.1514                 0.1361                 0.1526
 IR Inten    --     22.9364                 6.0160                14.3046

                     13                     14                     15
                      A                      A                      A
 Frequencies --    390.2952               447.4867               457.6382
 Red. masses --      1.5010                 2.6001                 3.0689
 Frc consts  --      0.1347                 0.3068                 0.3787
 IR Inten    --     28.0619                10.9395                 5.3040

                     16                     17                     18
                      A                      A                      A
 Frequencies --    565.3655               624.4557               746.7864
 Red. masses --      2.9381                 3.4615                 3.1835
 Frc consts  --      0.5533                 0.7953                 1.0460
 IR Inten    --      5.3618                 7.1213                24.9070

                     19                     20                     21
                      A                      A                      A
 Frequencies --    786.3937               845.0369               849.4933
 Red. masses --      1.9661                 1.3894                 1.3176
 Frc consts  --      0.7164                 0.5846                 0.5602
 IR Inten    --     66.0309                65.2247                67.5678

                     22                     23                     24
                      A                      A                      A
 Frequencies --    873.1945               894.5227               941.0620
 Red. masses --      1.5235                 1.7416                 1.3921
 Frc consts  --      0.6844                 0.8211                 0.7263
 IR Inten    --     11.6535               270.9428                19.4152

                     25                     26                     27
                      A                      A                      A
 Frequencies --    945.7942               970.9790               993.1124
 Red. masses --      1.5009                 1.5539                 1.3061
 Frc consts  --      0.7911                 0.8632                 0.7590
 IR Inten    --      8.1772                 4.4618                33.0902

                     28                     29                     30
                      A                      A                      A
 Frequencies --   1068.2467              1076.9922              1085.3939
 Red. masses --      2.6344                 2.0674                 2.5180
 Frc consts  --      1.7712                 1.4129                 1.7477
 IR Inten    --     15.6945                 7.8595                21.4381

                     31                     32                     33
                      A                      A                      A
 Frequencies --   1107.4444              1158.5233              1182.4293
 Red. masses --      1.5412                 2.0858                 2.0349
 Frc consts  --      1.1137                 1.6494                 1.6763
 IR Inten    --      3.6964                 8.0386                26.3152

                     34                     35                     36
                      A                      A                      A
 Frequencies --   1219.0231              1231.8843              1255.7188
 Red. masses --      2.8098                 1.4662                 2.0254
 Frc consts  --      2.4600                 1.3109                 1.8817
 IR Inten    --     22.0396                25.8598                35.3509

                     37                     38                     39
                      A                      A                      A
 Frequencies --   1316.5194              1318.0787              1351.5055
 Red. masses --      1.4224                 1.2967                 1.4728
 Frc consts  --      1.4526                 1.3273                 1.5850
 IR Inten    --     10.0306                 0.9287                 3.5787

                     40                     41                     42
                      A                      A                      A
 Frequencies --   1394.2576              1416.9015              1428.8513
 Red. masses --      1.3292                 1.3799                 1.2617
 Frc consts  --      1.5224                 1.6323                 1.5177
 IR Inten    --      5.2432                 1.9778                10.5770

                     43                     44                     45
                      A                      A                      A
 Frequencies --   1478.7888              1486.4691              1490.9661
 Red. masses --      1.2086                 1.0645                 1.0827
 Frc consts  --      1.5573                 1.3858                 1.4181
 IR Inten    --     44.8886                 3.3188                 7.7085

                     46                     47                     48
                      A                      A                      A
 Frequencies --   1503.1930              1524.2224              1541.5336
 Red. masses --      1.0710                 1.1793                 1.0920
 Frc consts  --      1.4258                 1.6143                 1.5289
 IR Inten    --      3.5030                 6.9107                 2.7678

                     49                     50                     51
                      A                      A                      A
 Frequencies --   1638.6020              1642.8829              1662.5174
 Red. masses --      1.1009                 1.0955                 1.0888
 Frc consts  --      1.7416                 1.7422                 1.7731
 IR Inten    --     28.5978                39.4142                24.6876

                     52                     53                     54
                      A                      A                      A
 Frequencies --   2937.5054              2973.5352              3004.9327
 Red. masses --      1.0643                 1.0947                 1.0687
 Frc consts  --      5.4109                 5.7027                 5.6856
 IR Inten    --     83.9098                71.2765                45.0204

                     55                     56                     57
                      A                      A                      A
 Frequencies --   3026.2408              3090.8871              3099.9376
 Red. masses --      1.0381                 1.0977                 1.0936
 Frc consts  --      5.6015                 6.1787                 6.1915
 IR Inten    --     20.4923                25.5900                21.2067

                     58                     59                     60
                      A                      A                      A
 Frequencies --   3119.0347              3457.8657              3475.3674
 Red. masses --      1.1015                 1.0731                 1.0489
 Frc consts  --      6.3134                 7.5597                 7.4644
 IR Inten    --     21.7807                20.8215                11.7828

                     61                     62                     63
                      A                      A                      A
 Frequencies --   3478.0554              3493.8790              3509.2816
 Red. masses --      1.0746                 1.0491                 1.0497
 Frc consts  --      7.6588                 7.5455                 7.6166
 IR Inten    --      5.6005                 0.7092                 0.2907

                     64                     65                     66
                      A                      A                      A
 Frequencies --   3558.9797              3581.5496              3585.1707
 Red. masses --      1.0926                 1.0923                 1.0926
 Frc consts  --      8.1542                 8.2555                 8.2742
 IR Inten    --      6.7126                 0.2354                 1.2802

 - Thermochemistry -
 -------------------
 Temperature   298.150 Kelvin.  Pressure   1.00000 Atm.
 Atom     1 has atomic number  6 and mass  12.00000

 Molecular mass:   133.13275 amu.
 Principal axes and moments of inertia in atomic units:
                           1         2         3
     Eigenvalues --   695.371392052.180552299.40976
           X            0.99994  -0.01100   0.00050
           Y            0.01101   0.99975  -0.01945
           Z           -0.00029   0.01945   0.99981
 This molecule is an asymmetric top.
 Rotational symmetry number  1.
 Warning -- assumption of classical behavior for rotation
           may cause significant error
 Rotational temperatures (Kelvin)      0.12456     0.04221     0.03767
 Rotational constants (GHZ):           2.59536     0.87943     0.78487
 Zero-point vibrational energy     574323.8 (Joules/Mol)
                                  137.26668 (Kcal/Mol)
 Warning -- explicit consideration of  16 degrees of freedom as
           vibrations may cause significant error
 Vibrational temperatures:     91.63   119.33   185.26   200.64   311.50
          (Kelvin)            332.51   385.61   388.28   432.64   454.63
                              480.44   523.30   561.55   643.83   658.44
                              813.43   898.45  1074.46  1131.45  1215.82
                             1222.23  1256.33  1287.02  1353.98  1360.79
                             1397.02  1428.87  1536.97  1549.55  1561.64
                             1593.37  1666.86  1701.25  1753.90  1772.41
                             1806.70  1894.18  1896.42  1944.51  2006.03
                             2038.61  2055.80  2127.65  2138.70  2145.17
                             2162.76  2193.02  2217.92  2357.58  2363.74
                             2391.99  4226.42  4278.25  4323.43  4354.09
                             4447.10  4460.12  4487.60  4975.10  5000.28
                             5004.15  5026.91  5049.07  5120.58  5153.05
                             5158.26

 Zero-point correction=                           0.218748 (Hartree/Particle)
 Thermal correction to Energy=                    0.230053
 Thermal correction to Enthalpy=                  0.230997
 Thermal correction to Gibbs Free Energy=         0.182550
 Sum of electronic and zero-point Energies=           -434.978380
 Sum of electronic and thermal Energies=              -434.967075
 Sum of electronic and thermal Enthalpies=            -434.966131
 Sum of electronic and thermal Free Energies=         -435.014578

                     E (Thermal)             CV                S
                      KCal/Mol        Cal/Mol-Kelvin    Cal/Mol-Kelvin
 Total                  144.361             42.316            101.966
 Electronic               0.000              0.000              0.000
 Translational            0.889              2.981             40.571
 Rotational               0.889              2.981             29.574
 Vibrational            142.583             36.354             31.821
 Vibration     1          0.597              1.972              4.340
 Vibration     2          0.600              1.961              3.820
 Vibration     3          0.611              1.924              2.964
 Vibration     4          0.615              1.914              2.811
 Vibration     5          0.645              1.816              1.988
 Vibration     6          0.653              1.793              1.870
 Vibration     7          0.673              1.732              1.609
 Vibration     8          0.674              1.729              1.597
 Vibration     9          0.693              1.672              1.413
 Vibration    10          0.703              1.643              1.331
 Vibration    11          0.715              1.608              1.241
 Vibration    12          0.737              1.547              1.106
 Vibration    13          0.758              1.491              0.999
 Vibration    14          0.807              1.366              0.803
 Vibration    15          0.816              1.344              0.773
 Vibration    16          0.921              1.106              0.513

 Optimization completed.
    -- Stationary point found.
 Normal termination of Gaussian 16 at Mon May 31 16:20:28 2021.
