 Gaussian 16, Revision A.03,
 Gaussian 16:  ES64L-G16RevA.03 25-Dec-2016

 -----------------------------
 # opt freq b3lyp/6-31g(2df,p)
 -----------------------------

 -------------------
 Title Card Required
 -------------------
 Symbolic Z-matrix:
 Charge =  0 Multiplicity = 1

 SCF Done:  E(RB3LYP) =  -416.692512783     A.U. after   14 cycles
 SCF Done:  E(RB3LYP) =  -416.703903287     A.U. after   14 cycles
 SCF Done:  E(RB3LYP) =  -416.709336262     A.U. after   13 cycles
 SCF Done:  E(RB3LYP) =  -416.713473163     A.U. after   14 cycles
 SCF Done:  E(RB3LYP) =  -416.718932816     A.U. after   14 cycles
 SCF Done:  E(RB3LYP) =  -416.720257694     A.U. after   13 cycles
 SCF Done:  E(RB3LYP) =  -416.720762813     A.U. after   11 cycles
 SCF Done:  E(RB3LYP) =  -416.720895939     A.U. after   11 cycles
 SCF Done:  E(RB3LYP) =  -416.720953112     A.U. after   10 cycles
 SCF Done:  E(RB3LYP) =  -416.720967722     A.U. after    9 cycles
 SCF Done:  E(RB3LYP) =  -416.720970727     A.U. after    9 cycles
 SCF Done:  E(RB3LYP) =  -416.720971405     A.U. after    7 cycles
 SCF Done:  E(RB3LYP) =  -416.720971491     A.U. after    7 cycles
 Optimization completed.
    -- Stationary point found.
 Normal termination of Gaussian 16 at Tue Jun  1 13:00:36 2021.

 ----------------------------------------------------------------------
 #N Geom=AllCheck Guess=TCheck SCRF=Check GenChk RB3LYP/6-31G(2df,p) Fr
 eq
 ----------------------------------------------------------------------

 Structure from the checkpoint file:  "CCpNpCNpCpNCtN.chk"
 -------------------
 Title Card Required
 -------------------
 Charge =  0 Multiplicity = 1

                         Standard orientation:
 ---------------------------------------------------------------------
 Center     Atomic      Atomic             Coordinates (Angstroms)
 Number     Number       Type             X           Y           Z
 ---------------------------------------------------------------------
      1          6           0       -2.865210   -1.354191    0.015246
      2          6           0       -1.828679   -0.289933   -0.379637
      3          7           0       -2.383425    1.072488   -0.434409
      4          6           0       -0.623074   -0.350083    0.573006
      5          7           0        0.589070    0.273890    0.032602
      6          6           0        0.626482    1.731759    0.112966
      7          7           0        1.730587   -0.294382    0.666804
      8          6           0        2.796022   -0.489417   -0.126356
      9          7           0        3.720328   -0.710164   -0.793482
     10          1           0       -3.735545   -1.304186   -0.646876
     11          1           0       -3.217871   -1.194978    1.041884
     12          1           0       -2.452855   -2.366987   -0.045800
     13          1           0       -1.449305   -0.516220   -1.382815
     14          1           0       -2.853535    1.281978    0.444051
     15          1           0       -3.100811    1.119604   -1.152363
     16          1           0       -0.371027   -1.397918    0.746029
     17          1           0       -0.907103    0.083076    1.552815
     18          1           0       -0.278105    2.125099   -0.351246
     19          1           0        1.509506    2.098862   -0.416587
     20          1           0        0.666572    2.086802    1.160817
     21          1           0        1.960911    0.103229    1.578144
 ---------------------------------------------------------------------

 SCF Done:  E(RB3LYP) =  -416.720971491     A.U. after    1 cycles

 The electronic state is 1-A.
 Alpha  occ. eigenvalues --  -14.40064 -14.37233 -14.32300 -14.30854 -10.23120
 Alpha  occ. eigenvalues --  -10.22456 -10.21912 -10.20585 -10.18630  -1.01927
 Alpha  occ. eigenvalues --   -0.90372  -0.88715  -0.83833  -0.75936  -0.70928
 Alpha  occ. eigenvalues --   -0.65489  -0.59691  -0.58446  -0.52582  -0.51193
 Alpha  occ. eigenvalues --   -0.47021  -0.46493  -0.43013  -0.41955  -0.41204
 Alpha  occ. eigenvalues --   -0.40303  -0.37882  -0.37146  -0.36209  -0.34952
 Alpha  occ. eigenvalues --   -0.34391  -0.31841  -0.25743  -0.25483  -0.24322
 Alpha virt. eigenvalues --    0.03232   0.06255   0.06406   0.08936   0.10762
 Alpha virt. eigenvalues --    0.11983   0.12730   0.13744   0.14648   0.15681
 Alpha virt. eigenvalues --    0.15784   0.16768   0.17436   0.18719   0.19440

 Mulliken charges:
               1
     1  C   -0.393803
     2  C    0.029824
     3  N   -0.505055
     4  C   -0.106459
     5  N   -0.083300
     6  C   -0.339513
     7  N   -0.352896
     8  C    0.353409
     9  N   -0.339312
    10  H    0.112043
    11  H    0.111625
    12  H    0.121433
    13  H    0.103314
    14  H    0.221754
    15  H    0.230244
    16  H    0.120558
    17  H    0.072613
    18  H    0.171481
    19  H    0.136529
    20  H    0.085621
    21  H    0.249892
 Sum of Mulliken charges =  -0.00000

 Dipole moment (field-independent basis, Debye):
    X=             -5.2760    Y=              1.2507    Z=              2.8312  Tot=              6.1169
 Quadrupole moment (field-independent basis, Debye-Ang):
   XX=            -65.9753   YY=            -56.0968   ZZ=            -53.5666
   XY=              4.8622   XZ=              8.9917   YZ=              0.0343

  Exact polarizability: 104.053  -2.850  73.948  -5.375   2.031  70.185
 Approx polarizability: 133.959  -8.489 102.515 -14.906   4.648 113.669

                      1                      2                      3
                      A                      A                      A
 Frequencies --     44.7829                51.3949               117.1537
 Red. masses --      3.6051                 5.2021                 3.2006
 Frc consts  --      0.0043                 0.0081                 0.0259
 IR Inten    --      1.3814                 3.8339                 2.6520

                      4                      5                      6
                      A                      A                      A
 Frequencies --    163.1775               217.6142               249.4818
 Red. masses --      3.4842                 1.7827                 1.0707
 Frc consts  --      0.0547                 0.0497                 0.0393
 IR Inten    --      1.0761                 8.3491                14.7147

                      7                      8                      9
                      A                      A                      A
 Frequencies --    272.5846               283.2215               315.3819
 Red. masses --      1.6139                 1.1738                 2.9228
 Frc consts  --      0.0707                 0.0555                 0.1713
 IR Inten    --      9.5830                 1.4092                 8.6948

                     10                     11                     12
                      A                      A                      A
 Frequencies --    326.2002               389.3089               424.5979
 Red. masses --      2.7526                 2.3622                 2.2063
 Frc consts  --      0.1726                 0.2109                 0.2343
 IR Inten    --      1.5589                 8.5813                12.9932

                     13                     14                     15
                      A                      A                      A
 Frequencies --    459.2813               478.5931               514.8245
 Red. masses --      2.0753                 2.5650                 3.8679
 Frc consts  --      0.2579                 0.3462                 0.6040
 IR Inten    --     11.9889                 6.4565                 6.9891

                     16                     17                     18
                      A                      A                      A
 Frequencies --    607.1436               671.6868               843.6415
 Red. masses --      4.9678                 2.6881                 2.6934
 Frc consts  --      1.0789                 0.7145                 1.1294
 IR Inten    --     26.8930                46.2451                20.4884

                     19                     20                     21
                      A                      A                      A
 Frequencies --    883.2647               896.9416               941.8596
 Red. masses --      3.3543                 1.3666                 1.7857
 Frc consts  --      1.5418                 0.6478                 0.9333
 IR Inten    --     45.1657                74.6642                32.1870

                     22                     23                     24
                      A                      A                      A
 Frequencies --    960.0486              1027.3067              1034.9348
 Red. masses --      1.5946                 2.2838                 1.4693
 Frc consts  --      0.8660                 1.4201                 0.9272
 IR Inten    --      6.3223                 9.0138                 7.4233

                     25                     26                     27
                      A                      A                      A
 Frequencies --   1071.4052              1135.2466              1146.0739
 Red. masses --      2.7418                 2.3548                 2.4852
 Frc consts  --      1.8544                 1.7880                 1.9232
 IR Inten    --     48.8283                13.4913                 5.1067

                     28                     29                     30
                      A                      A                      A
 Frequencies --   1159.8266              1185.4519              1236.7836
 Red. masses --      1.5509                 1.9123                 2.0962
 Frc consts  --      1.2292                 1.5834                 1.8891
 IR Inten    --      2.8289                11.5280                 6.2642

                     31                     32                     33
                      A                      A                      A
 Frequencies --   1270.9272              1323.6060              1334.5681
 Red. masses --      2.3096                 1.3808                 1.2225
 Frc consts  --      2.1980                 1.4252                 1.2829
 IR Inten    --      6.1040                13.7299                 7.7224

                     34                     35                     36
                      A                      A                      A
 Frequencies --   1395.2062              1406.0789              1420.3785
 Red. masses --      1.3410                 1.2281                 1.3040
 Frc consts  --      1.5380                 1.4306                 1.5500
 IR Inten    --      1.7784                 1.6112                 8.8700

                     37                     38                     39
                      A                      A                      A
 Frequencies --   1442.3644              1467.1793              1481.1608
 Red. masses --      1.1795                 1.1994                 1.0699
 Frc consts  --      1.4457                 1.5211                 1.3829
 IR Inten    --      3.7727                 9.1473                 2.5803

                     40                     41                     42
                      A                      A                      A
 Frequencies --   1494.0079              1496.8089              1505.1443
 Red. masses --      1.0532                 1.0632                 1.0918
 Frc consts  --      1.3851                 1.4034                 1.4573
 IR Inten    --      3.3015                 2.5099                 7.1958

                     43                     44                     45
                      A                      A                      A
 Frequencies --   1510.8789              1655.3574              2345.5168
 Red. masses --      1.0860                 1.0907                12.3649
 Frc consts  --      1.4607                 1.7610                40.0792
 IR Inten    --     11.0695                24.5464               119.7899

                     46                     47                     48
                      A                      A                      A
 Frequencies --   2909.7999              2926.9118              3021.3822
 Red. masses --      1.0719                 1.0595                 1.0366
 Frc consts  --      5.3470                 5.3480                 5.5756
 IR Inten    --     44.4423                89.5749                19.7982

                     49                     50                     51
                      A                      A                      A
 Frequencies --   3048.0096              3086.8511              3091.1933
 Red. masses --      1.0842                 1.0743                 1.0993
 Frc consts  --      5.9347                 6.0310                 6.1889
 IR Inten    --     11.6331                24.8953                31.9640

                     52                     53                     54
                      A                      A                      A
 Frequencies --   3100.9076              3110.6737              3154.0805
 Red. masses --      1.1003                 1.0896                 1.1022
 Frc consts  --      6.2334                 6.2120                 6.4602
 IR Inten    --     20.3360                21.3234                 1.4873

                     55                     56                     57
                      A                      A                      A
 Frequencies --   3426.0923              3471.0866              3553.8410
 Red. masses --      1.0729                 1.0501                 1.0908
 Frc consts  --      7.4202                 7.4546                 8.1167
 IR Inten    --     16.0436                 0.2462                 0.3733

 - Thermochemistry -
 -------------------
 Temperature   298.150 Kelvin.  Pressure   1.00000 Atm.
 Atom     1 has atomic number  6 and mass  12.00000

 Molecular mass:   128.10620 amu.
 Principal axes and moments of inertia in atomic units:
                           1         2         3
     Eigenvalues --   541.237092338.268332624.04359
           X            0.99966   0.02474   0.00825
           Y           -0.02473   0.99969  -0.00129
           Z           -0.00828   0.00108   0.99997
 This molecule is an asymmetric top.
 Rotational symmetry number  1.
 Warning -- assumption of classical behavior for rotation
           may cause significant error
 Rotational temperatures (Kelvin)      0.16003     0.03704     0.03301
 Rotational constants (GHZ):           3.33447     0.77183     0.68777
 Zero-point vibrational energy     475869.9 (Joules/Mol)
                                  113.73563 (Kcal/Mol)
 Warning -- explicit consideration of  16 degrees of freedom as
           vibrations may cause significant error
 Vibrational temperatures:     64.43    73.95   168.56   234.78   313.10
          (Kelvin)            358.95   392.19   407.49   453.76   469.33
                              560.13   610.90   660.80   688.59   740.72
                              873.54   966.41  1213.81  1270.82  1290.50
                             1355.13  1381.30  1478.07  1489.04  1541.51
                             1633.37  1648.94  1668.73  1705.60  1779.46
                             1828.58  1904.37  1920.15  2007.39  2023.03
                             2043.61  2075.24  2110.94  2131.06  2149.54
                             2153.57  2165.57  2173.82  2381.69  3374.68
                             4186.55  4211.17  4347.10  4385.41  4441.29
                             4447.54  4461.51  4475.57  4538.02  4929.38
                             4994.12  5113.18

 Zero-point correction=                           0.181249 (Hartree/Particle)
 Thermal correction to Energy=                    0.191936
 Thermal correction to Enthalpy=                  0.192880
 Thermal correction to Gibbs Free Energy=         0.144858
 Sum of electronic and zero-point Energies=           -416.539722
 Sum of electronic and thermal Energies=              -416.529036
 Sum of electronic and thermal Enthalpies=            -416.528091
 Sum of electronic and thermal Free Energies=         -416.576113

                     E (Thermal)             CV                S
                      KCal/Mol        Cal/Mol-Kelvin    Cal/Mol-Kelvin
 Total                  120.442             38.618            101.071
 Electronic               0.000              0.000              0.000
 Translational            0.889              2.981             40.456
 Rotational               0.889              2.981             29.586
 Vibrational            118.664             32.657             31.028
 Vibration     1          0.595              1.979              5.035
 Vibration     2          0.596              1.977              4.763
 Vibration     3          0.608              1.935              3.147
 Vibration     4          0.623              1.888              2.513
 Vibration     5          0.646              1.814              1.979
 Vibration     6          0.662              1.764              1.734
 Vibration     7          0.676              1.724              1.580
 Vibration     8          0.682              1.705              1.514
 Vibration     9          0.703              1.644              1.334
 Vibration    10          0.710              1.623              1.279
 Vibration    11          0.757              1.493              1.003
 Vibration    12          0.787              1.417              0.876
 Vibration    13          0.817              1.340              0.768
 Vibration    14          0.835              1.298              0.714
 Vibration    15          0.870              1.217              0.622
 Vibration    16          0.966              1.017              0.438

 Optimization completed.
    -- Stationary point found.
 Normal termination of Gaussian 16 at Tue Jun  1 13:34:04 2021.
