 Gaussian 16, Revision A.03,
 Gaussian 16:  ES64L-G16RevA.03 25-Dec-2016

 -----------------------------
 # opt freq b3lyp/6-31g(2df,p)
 -----------------------------

 -------------------
 Title Card Required
 -------------------
 Symbolic Z-matrix:
 Charge =  0 Multiplicity = 1

 SCF Done:  E(RB3LYP) =  -417.954389532     A.U. after   13 cycles
 SCF Done:  E(RB3LYP) =  -417.963082790     A.U. after   11 cycles
 SCF Done:  E(RB3LYP) =  -417.964507036     A.U. after   11 cycles
 SCF Done:  E(RB3LYP) =  -417.964930946     A.U. after   11 cycles
 SCF Done:  E(RB3LYP) =  -417.965091980     A.U. after   11 cycles
 SCF Done:  E(RB3LYP) =  -417.965274397     A.U. after   10 cycles
 SCF Done:  E(RB3LYP) =  -417.965297060     A.U. after   10 cycles
 SCF Done:  E(RB3LYP) =  -417.965300133     A.U. after    9 cycles
 SCF Done:  E(RB3LYP) =  -417.965301014     A.U. after    7 cycles
 SCF Done:  E(RB3LYP) =  -417.965301605     A.U. after    6 cycles
 SCF Done:  E(RB3LYP) =  -417.965301781     A.U. after    7 cycles
 SCF Done:  E(RB3LYP) =  -417.965301848     A.U. after    6 cycles
 Optimization completed.
    -- Stationary point found.
 Normal termination of Gaussian 16 at Mon May 31 22:56:08 2021.

 ----------------------------------------------------------------------
 #N Geom=AllCheck Guess=TCheck SCRF=Check GenChk RB3LYP/6-31G(2df,p) Fr
 eq
 ----------------------------------------------------------------------

 Structure from the checkpoint file:  "CCpNpCpdNpCNCN.chk"
 -------------------
 Title Card Required
 -------------------
 Charge =  0 Multiplicity = 1

                         Standard orientation:
 ---------------------------------------------------------------------
 Center     Atomic      Atomic             Coordinates (Angstroms)
 Number     Number       Type             X           Y           Z
 ---------------------------------------------------------------------
      1          6           0       -3.312490    0.622094    0.305615
      2          6           0       -2.108920   -0.327350    0.312404
      3          7           0       -2.217313   -1.453836   -0.630222
      4          6           0       -0.770012    0.373569    0.053852
      5          7           0       -0.614684    1.559807   -0.374384
      6          6           0        0.453874   -0.455252    0.381449
      7          7           0        1.659595    0.080162   -0.208870
      8          6           0        2.882208   -0.386751    0.405522
      9          7           0        4.003268    0.235774   -0.287369
     10          1           0       -4.223905    0.066945    0.548404
     11          1           0       -3.459049    1.074190   -0.682390
     12          1           0       -3.204640    1.427550    1.039923
     13          1           0       -2.033752   -0.777616    1.312482
     14          1           0       -2.334566   -1.095344   -1.574794
     15          1           0       -3.051938   -1.994602   -0.422766
     16          1           0       -1.508479    2.028912   -0.528708
     17          1           0        0.277719   -1.484153    0.045009
     18          1           0        0.495168   -0.506101    1.492387
     19          1           0        1.622479    1.094862   -0.206821
     20          1           0        2.872404   -1.492048    0.362986
     21          1           0        2.968442   -0.118544    1.477862
     22          1           0        4.016696   -0.087604   -1.250351
     23          1           0        4.879396   -0.047662    0.139637
 ---------------------------------------------------------------------

 SCF Done:  E(RB3LYP) =  -417.965301848     A.U. after    1 cycles

 The electronic state is 1-A.
 Alpha  occ. eigenvalues --  -14.32013 -14.30756 -14.29666 -14.29134 -10.22694
 Alpha  occ. eigenvalues --  -10.22538 -10.21621 -10.19761 -10.18687  -0.92306
 Alpha  occ. eigenvalues --   -0.90094  -0.87749  -0.83528  -0.74114  -0.70497
 Alpha  occ. eigenvalues --   -0.63526  -0.60102  -0.54382  -0.51683  -0.48645
 Alpha  occ. eigenvalues --   -0.47815  -0.46042  -0.43933  -0.42982  -0.41922
 Alpha  occ. eigenvalues --   -0.41024  -0.39423  -0.37749  -0.36907  -0.36273
 Alpha  occ. eigenvalues --   -0.34784  -0.29970  -0.25974  -0.24652  -0.22966
 Alpha  occ. eigenvalues --   -0.20547
 Alpha virt. eigenvalues --    0.00483   0.07212   0.09761   0.10996   0.11268
 Alpha virt. eigenvalues --    0.12655   0.14165   0.15783   0.15893   0.16846
 Alpha virt. eigenvalues --    0.17444   0.17922   0.18439   0.19125   0.19488

 Mulliken charges:
               1
     1  C   -0.419088
     2  C   -0.027453
     3  N   -0.506433
     4  C    0.310975
     5  N   -0.476340
     6  C   -0.185850
     7  N   -0.283296
     8  C   -0.075670
     9  N   -0.511579
    10  H    0.112788
    11  H    0.118362
    12  H    0.125463
    13  H    0.093692
    14  H    0.229783
    15  H    0.229076
    16  H    0.216063
    17  H    0.133478
    18  H    0.083491
    19  H    0.236305
    20  H    0.075327
    21  H    0.072327
    22  H    0.226875
    23  H    0.221706
 Sum of Mulliken charges =   0.00000

 Dipole moment (field-independent basis, Debye):
    X=             -2.6218    Y=             -1.6004    Z=              0.8065  Tot=              3.1758
 Quadrupole moment (field-independent basis, Debye-Ang):
   XX=            -43.6805   YY=            -59.6861   ZZ=            -54.6927
   XY=             -4.0882   XZ=              1.8532   YZ=              0.4434

  Exact polarizability: 105.742  -0.115  80.503   0.244  -3.898  70.162
 Approx polarizability: 120.135   2.765 127.020   0.147 -10.394 109.598

                      1                      2                      3
                      A                      A                      A
 Frequencies --     43.5312                54.1574                89.8209
 Red. masses --      3.6147                 2.7105                 2.9043
 Frc consts  --      0.0040                 0.0047                 0.0138
 IR Inten    --      3.0758                 0.7008                 2.3012

                      4                      5                      6
                      A                      A                      A
 Frequencies --    116.8845               151.1656               244.6051
 Red. masses --      2.6406                 2.7977                 2.2901
 Frc consts  --      0.0213                 0.0377                 0.0807
 IR Inten    --      5.3568                 4.2480                11.0098

                      7                      8                      9
                      A                      A                      A
 Frequencies --    252.7132               271.3280               288.8530
 Red. masses --      1.3141                 1.0340                 1.4529
 Frc consts  --      0.0494                 0.0448                 0.0714
 IR Inten    --     24.8734                 1.5052                17.5761

                     10                     11                     12
                      A                      A                      A
 Frequencies --    306.3750               326.7204               368.9380
 Red. masses --      2.7313                 2.3347                 3.5902
 Frc consts  --      0.1511                 0.1468                 0.2879
 IR Inten    --      3.3281                27.6527                 7.2027

                     13                     14                     15
                      A                      A                      A
 Frequencies --    431.1963               527.2907               569.1221
 Red. masses --      2.5718                 3.2265                 2.7867
 Frc consts  --      0.2817                 0.5285                 0.5318
 IR Inten    --     16.7408                11.3737                 4.3279

                     16                     17                     18
                      A                      A                      A
 Frequencies --    613.3965               804.7108               812.0849
 Red. masses --      2.2559                 1.4202                 2.9115
 Frc consts  --      0.5001                 0.5419                 1.1313
 IR Inten    --      5.6149                52.1452                 2.2575

                     19                     20                     21
                      A                      A                      A
 Frequencies --    855.5166               866.6733               896.0032
 Red. masses --      1.7832                 1.2534                 1.4222
 Frc consts  --      0.7690                 0.5547                 0.6727
 IR Inten    --    137.2777               138.3436                16.7841

                     22                     23                     24
                      A                      A                      A
 Frequencies --    918.8030               977.9174              1008.8067
 Red. masses --      1.4951                 1.4844                 1.7759
 Frc consts  --      0.7436                 0.8364                 1.0648
 IR Inten    --     44.5979                12.1862                29.3261

                     25                     26                     27
                      A                      A                      A
 Frequencies --   1019.9745              1031.5155              1078.4445
 Red. masses --      1.4940                 1.5590                 2.8566
 Frc consts  --      0.9158                 0.9774                 1.9575
 IR Inten    --      6.2671                20.0090                 4.0890

                     28                     29                     30
                      A                      A                      A
 Frequencies --   1111.3092              1151.3918              1172.6044
 Red. masses --      2.5171                 1.4172                 2.3354
 Frc consts  --      1.8316                 1.1070                 1.8920
 IR Inten    --      8.8763                 6.4117                31.8033

                     31                     32                     33
                      A                      A                      A
 Frequencies --   1185.6626              1207.7426              1216.9747
 Red. masses --      2.4618                 1.4810                 1.4684
 Frc consts  --      2.0390                 1.2728                 1.2813
 IR Inten    --     93.3025                 8.3129                 5.2403

                     34                     35                     36
                      A                      A                      A
 Frequencies --   1265.3071              1279.7196              1328.3173
 Red. masses --      1.3277                 1.2852                 1.3180
 Frc consts  --      1.2524                 1.2401                 1.3702
 IR Inten    --      7.8605                43.0132                 6.9296

                     37                     38                     39
                      A                      A                      A
 Frequencies --   1359.8282              1385.8690              1403.0407
 Red. masses --      1.3202                 1.2916                 1.2486
 Frc consts  --      1.4384                 1.4616                 1.4482
 IR Inten    --      1.1449                12.2648                 8.1486

                     40                     41                     42
                      A                      A                      A
 Frequencies --   1414.3335              1446.3677              1483.6681
 Red. masses --      1.6205                 1.4410                 1.3311
 Frc consts  --      1.9099                 1.7761                 1.7263
 IR Inten    --     10.5874                20.6632               110.5954

                     43                     44                     45
                      A                      A                      A
 Frequencies --   1494.4000              1498.7543              1505.5610
 Red. masses --      1.0449                 1.0605                 1.1179
 Frc consts  --      1.3748                 1.4035                 1.4929
 IR Inten    --      5.5355                 6.2962                26.5907

                     46                     47                     48
                      A                      A                      A
 Frequencies --   1541.2521              1639.7741              1656.3466
 Red. masses --      1.0898                 1.1004                 1.0977
 Frc consts  --      1.5252                 1.7433                 1.7743
 IR Inten    --      1.2808                30.7431                22.9402

                     49                     50                     51
                      A                      A                      A
 Frequencies --   1731.8350              2854.3509              2895.4530
 Red. masses --      8.4693                 1.0730                 1.0690
 Frc consts  --     14.9661                 5.1507                 5.2805
 IR Inten    --     50.3992                55.9503               116.1712

                     52                     53                     54
                      A                      A                      A
 Frequencies --   2920.8461              3008.0438              3025.3149
 Red. masses --      1.0886                 1.0824                 1.0361
 Frc consts  --      5.4719                 5.7705                 5.5870
 IR Inten    --     90.0924                19.4687                15.9321

                     55                     56                     57
                      A                      A                      A
 Frequencies --   3048.5924              3094.3603              3103.4315
 Red. masses --      1.0820                 1.1005                 1.1014
 Frc consts  --      5.9247                 6.2082                 6.2500
 IR Inten    --     12.1309                27.7901                23.8831

                     58                     59                     60
                      A                      A                      A
 Frequencies --   3459.8570              3479.0802              3492.8834
 Red. masses --      1.0737                 1.0488                 1.0490
 Frc consts  --      7.5728                 7.4795                 7.5406
 IR Inten    --      1.7318                 0.4254                 0.6420

                     61                     62                     63
                      A                      A                      A
 Frequencies --   3528.7970              3561.2937              3579.4268
 Red. masses --      1.0732                 1.0926                 1.0924
 Frc consts  --      7.8741                 8.1647                 8.2462
 IR Inten    --     15.3414                 0.3675                 0.2094

 - Thermochemistry -
 -------------------
 Temperature   298.150 Kelvin.  Pressure   1.00000 Atm.
 Atom     1 has atomic number  6 and mass  12.00000

 Molecular mass:   130.12185 amu.
 Principal axes and moments of inertia in atomic units:
                           1         2         3
     Eigenvalues --   441.355872791.412333032.15844
           X            0.99996  -0.00826   0.00179
           Y            0.00827   0.99995  -0.00641
           Z           -0.00174   0.00642   0.99998
 This molecule is an asymmetric top.
 Rotational symmetry number  1.
 Warning -- assumption of classical behavior for rotation
           may cause significant error
 Rotational temperatures (Kelvin)      0.19625     0.03103     0.02857
 Rotational constants (GHZ):           4.08908     0.64653     0.59520
 Zero-point vibrational energy     541061.0 (Joules/Mol)
                                  129.31669 (Kcal/Mol)
 Warning -- explicit consideration of  16 degrees of freedom as
           vibrations may cause significant error
 Vibrational temperatures:     62.63    77.92   129.23   168.17   217.49
          (Kelvin)            351.93   363.60   390.38   415.60   440.81
                              470.08   530.82   620.40   758.65   818.84
                              882.54  1157.80  1168.41  1230.90  1246.95
                             1289.15  1321.95  1407.01  1451.45  1467.52
                             1484.12  1551.64  1598.93  1656.60  1687.12
                             1705.90  1737.67  1750.96  1820.49  1841.23
                             1911.15  1956.49  1993.96  2018.66  2034.91
                             2081.00  2134.67  2150.11  2156.37  2166.17
                             2217.52  2359.27  2383.11  2491.72  4106.77
                             4165.91  4202.45  4327.90  4352.75  4386.24
                             4452.09  4465.15  4977.96  5005.62  5025.48
                             5077.15  5123.91  5150.00

 Zero-point correction=                           0.206079 (Hartree/Particle)
 Thermal correction to Energy=                    0.217277
 Thermal correction to Enthalpy=                  0.218221
 Thermal correction to Gibbs Free Energy=         0.168780
 Sum of electronic and zero-point Energies=           -417.759223
 Sum of electronic and thermal Energies=              -417.748025
 Sum of electronic and thermal Enthalpies=            -417.747080
 Sum of electronic and thermal Free Energies=         -417.796522

                     E (Thermal)             CV                S
                      KCal/Mol        Cal/Mol-Kelvin    Cal/Mol-Kelvin
 Total                  136.344             40.128            104.059
 Electronic               0.000              0.000              0.000
 Translational            0.889              2.981             40.503
 Rotational               0.889              2.981             29.703
 Vibrational            134.566             34.166             33.853
 Vibration     1          0.595              1.980              5.092
 Vibration     2          0.596              1.976              4.659
 Vibration     3          0.602              1.956              3.664
 Vibration     4          0.608              1.935              3.151
 Vibration     5          0.619              1.901              2.658
 Vibration     6          0.660              1.772              1.769
 Vibration     7          0.664              1.758              1.712
 Vibration     8          0.675              1.726              1.588
 Vibration     9          0.685              1.694              1.481
 Vibration    10          0.697              1.662              1.382
 Vibration    11          0.710              1.622              1.276
 Vibration    12          0.741              1.536              1.084
 Vibration    13          0.792              1.402              0.855
 Vibration    14          0.882              1.190              0.593
 Vibration    15          0.925              1.098              0.506
 Vibration    16          0.973              1.004              0.427

 Optimization completed.
    -- Stationary point found.
 Normal termination of Gaussian 16 at Mon May 31 23:26:14 2021.
