 Gaussian 16, Revision A.03,
 Gaussian 16:  ES64L-G16RevA.03 25-Dec-2016

 -----------------------------
 # opt freq b3lyp/6-31g(2df,p)
 -----------------------------

 -------------------
 Title Card Required
 -------------------
 Symbolic Z-matrix:
 Charge =  0 Multiplicity = 1

 SCF Done:  E(RB3LYP) =  -433.963539645     A.U. after   14 cycles
 SCF Done:  E(RB3LYP) =  -433.969286201     A.U. after   14 cycles
 SCF Done:  E(RB3LYP) =  -433.972372251     A.U. after   13 cycles
 SCF Done:  E(RB3LYP) =  -433.973081497     A.U. after   13 cycles
 SCF Done:  E(RB3LYP) =  -433.973518424     A.U. after   13 cycles
 SCF Done:  E(RB3LYP) =  -433.973778193     A.U. after   13 cycles
 SCF Done:  E(RB3LYP) =  -433.973956887     A.U. after   12 cycles
 SCF Done:  E(RB3LYP) =  -433.973988271     A.U. after   10 cycles
 SCF Done:  E(RB3LYP) =  -433.974000593     A.U. after   10 cycles
 SCF Done:  E(RB3LYP) =  -433.974012116     A.U. after   11 cycles
 SCF Done:  E(RB3LYP) =  -433.974018613     A.U. after    9 cycles
 SCF Done:  E(RB3LYP) =  -433.974024341     A.U. after    9 cycles
 SCF Done:  E(RB3LYP) =  -433.974025795     A.U. after    8 cycles
 SCF Done:  E(RB3LYP) =  -433.974025966     A.U. after    8 cycles
 SCF Done:  E(RB3LYP) =  -433.974026001     A.U. after    7 cycles
 Optimization completed.
    -- Stationary point found.
 Normal termination of Gaussian 16 at Mon May 31 18:43:17 2021.

 ----------------------------------------------------------------------
 #N Geom=AllCheck Guess=TCheck SCRF=Check GenChk RB3LYP/6-31G(2df,p) Fr
 eq
 ----------------------------------------------------------------------

 Structure from the checkpoint file:  "CCpNpCpNpCNNdN.chk"
 -------------------
 Title Card Required
 -------------------
 Charge =  0 Multiplicity = 1

                         Standard orientation:
 ---------------------------------------------------------------------
 Center     Atomic      Atomic             Coordinates (Angstroms)
 Number     Number       Type             X           Y           Z
 ---------------------------------------------------------------------
      1          6           0       -3.188290    0.450153   -0.282833
      2          6           0       -1.967935   -0.296587    0.277615
      3          7           0       -1.945622   -1.724889   -0.071883
      4          6           0       -0.632131    0.347489   -0.167471
      5          7           0       -0.508670    1.786187    0.105017
      6          6           0        0.568495   -0.354913    0.477465
      7          7           0        1.799501    0.172370   -0.064417
      8          7           0        2.895589   -0.578835   -0.022207
      9          7           0        3.956057    0.065933   -0.235920
     10          1           0       -4.113397   -0.041989    0.034423
     11          1           0       -3.171664    0.453060   -1.380145
     12          1           0       -3.236135    1.489259    0.058053
     13          1           0       -2.006492   -0.245377    1.376063
     14          1           0       -1.989997   -1.826520   -1.083803
     15          1           0       -2.778524   -2.181074    0.289055
     16          1           0       -0.541227    0.226885   -1.256558
     17          1           0       -0.729605    1.977751    1.079546
     18          1           0       -1.163185    2.322288   -0.453748
     19          1           0        0.534600   -1.426430    0.284389
     20          1           0        0.512785   -0.215560    1.571758
     21          1           0        1.921308    1.181904   -0.103562
     22          1           0        4.702711   -0.636409   -0.218258
 ---------------------------------------------------------------------

 SCF Done:  E(RB3LYP) =  -433.974026001     A.U. after    1 cycles

 The electronic state is 1-A.
 Alpha  occ. eigenvalues --  -14.38773 -14.35254 -14.32098 -14.31714 -14.31670
 Alpha  occ. eigenvalues --  -10.21932 -10.21787 -10.20737 -10.18494  -1.04105
 Alpha  occ. eigenvalues --   -0.91312  -0.88413  -0.86909  -0.74492  -0.72774
 Alpha  occ. eigenvalues --   -0.65105  -0.60836  -0.58653  -0.52668  -0.50070
 Alpha  occ. eigenvalues --   -0.48546  -0.46048  -0.45607  -0.43937  -0.42228
 Alpha  occ. eigenvalues --   -0.41394  -0.39887  -0.38092  -0.36926  -0.36620
 Alpha  occ. eigenvalues --   -0.35413  -0.33966  -0.25926  -0.24055  -0.22120
 Alpha  occ. eigenvalues --   -0.22024
 Alpha virt. eigenvalues --    0.00635   0.06226   0.07971   0.09791   0.12674
 Alpha virt. eigenvalues --    0.13057   0.14131   0.14696   0.15032   0.15940
 Alpha virt. eigenvalues --    0.16323   0.17628   0.18752   0.18882   0.22501

 Mulliken charges:
               1
     1  C   -0.403905
     2  C    0.027670
     3  N   -0.506201
     4  C    0.023108
     5  N   -0.523295
     6  C   -0.110961
     7  N   -0.178310
     8  N   -0.054939
     9  N   -0.376580
    10  H    0.111617
    11  H    0.110549
    12  H    0.106264
    13  H    0.075938
    14  H    0.223731
    15  H    0.227478
    16  H    0.083829
    17  H    0.225846
    18  H    0.233929
    19  H    0.145897
    20  H    0.086808
    21  H    0.238747
    22  H    0.232781
 Sum of Mulliken charges =  -0.00000

 Dipole moment (field-independent basis, Debye):
    X=             -4.6018    Y=              0.2998    Z=              0.2789  Tot=              4.6200
 Quadrupole moment (field-independent basis, Debye-Ang):
   XX=            -56.7853   YY=            -55.9191   ZZ=            -53.5797
   XY=             -2.3250   XZ=              1.4546   YZ=              2.1957

  Exact polarizability: 116.331  -2.351  76.156  -3.180   0.077  63.239
 Approx polarizability: 147.710  -0.869 110.714  -6.274  -0.105 100.106

                      1                      2                      3
                      A                      A                      A
 Frequencies --     41.6436                69.1706                98.5708
 Red. masses --      4.0241                 3.1536                 4.6543
 Frc consts  --      0.0041                 0.0089                 0.0266
 IR Inten    --      0.4545                 0.5879                 2.8758

                      4                      5                      6
                      A                      A                      A
 Frequencies --    127.3662               207.8943               231.4771
 Red. masses --      3.0775                 2.3499                 1.4307
 Frc consts  --      0.0294                 0.0598                 0.0452
 IR Inten    --      0.6912                 7.0167                21.3687

                      7                      8                      9
                      A                      A                      A
 Frequencies --    246.9503               261.4444               294.7090
 Red. masses --      1.2460                 2.1801                 1.3519
 Frc consts  --      0.0448                 0.0878                 0.0692
 IR Inten    --      0.7360                14.8962                23.1955

                     10                     11                     12
                      A                      A                      A
 Frequencies --    320.2781               359.8969               386.0286
 Red. masses --      3.4638                 2.4509                 2.1412
 Frc consts  --      0.2093                 0.1870                 0.1880
 IR Inten    --      0.2033                11.4392                 7.1851

                     13                     14                     15
                      A                      A                      A
 Frequencies --    437.8466               478.7575               547.7904
 Red. masses --      3.0607                 2.7575                 2.2104
 Frc consts  --      0.3457                 0.3724                 0.3908
 IR Inten    --     12.7239                 4.1777                 7.7533

                     16                     17                     18
                      A                      A                      A
 Frequencies --    647.0043               704.2358               818.4847
 Red. masses --      2.4808                 1.4920                 1.9987
 Frc consts  --      0.6119                 0.4360                 0.7889
 IR Inten    --     87.6932                76.7131                61.1173

                     19                     20                     21
                      A                      A                      A
 Frequencies --    871.8893               907.4003               910.8164
 Red. masses --      1.8870                 1.4379                 1.7031
 Frc consts  --      0.8452                 0.6975                 0.8325
 IR Inten    --    150.5402                86.4432                17.0581

                     22                     23                     24
                      A                      A                      A
 Frequencies --    920.7029               935.8812               998.8889
 Red. masses --      1.1718                 1.4151                 1.9921
 Frc consts  --      0.5853                 0.7303                 1.1711
 IR Inten    --     35.3493                 3.1284                 2.5654

                     25                     26                     27
                      A                      A                      A
 Frequencies --   1026.0360              1083.9150              1090.5524
 Red. masses --      1.3902                 2.8521                 1.7512
 Frc consts  --      0.8623                 1.9742                 1.2271
 IR Inten    --      0.9879                21.9689                67.0829

                     28                     29                     30
                      A                      A                      A
 Frequencies --   1150.3233              1176.7430              1184.0496
 Red. masses --      2.0794                 1.7661                 1.8230
 Frc consts  --      1.6212                 1.4408                 1.5059
 IR Inten    --     19.6039                20.1403                46.9974

                     31                     32                     33
                      A                      A                      A
 Frequencies --   1194.1384              1231.4474              1285.4131
 Red. masses --      2.4945                 1.6335                 1.3265
 Frc consts  --      2.0958                 1.4595                 1.2913
 IR Inten    --    137.4124                16.9825                 0.7396

                     34                     35                     36
                      A                      A                      A
 Frequencies --   1309.0731              1366.5107              1379.1111
 Red. masses --      1.4908                 1.2955                 1.3693
 Frc consts  --      1.5052                 1.4253                 1.5345
 IR Inten    --      8.6915                 6.0537                 9.0749

                     37                     38                     39
                      A                      A                      A
 Frequencies --   1397.9546              1406.3009              1413.8864
 Red. masses --      1.2665                 1.3327                 1.3315
 Frc consts  --      1.4583                 1.5529                 1.5683
 IR Inten    --      3.5158                 4.8120                 3.8764

                     40                     41                     42
                      A                      A                      A
 Frequencies --   1465.5235              1491.5411              1495.6675
 Red. masses --      1.9195                 1.0581                 1.4190
 Frc consts  --      2.4290                 1.3869                 1.8703
 IR Inten    --     14.4425                 2.0150                13.4402

                     43                     44                     45
                      A                      A                      A
 Frequencies --   1502.1738              1508.4761              1569.2384
 Red. masses --      1.0575                 1.1278                 4.9418
 Frc consts  --      1.4059                 1.5120                 7.1699
 IR Inten    --      7.4447                27.3556               215.5265

                     46                     47                     48
                      A                      A                      A
 Frequencies --   1653.5286              1658.3648              2943.9077
 Red. masses --      1.0899                 1.0956                 1.0731
 Frc consts  --      1.7557                 1.7752                 5.4796
 IR Inten    --     13.5543                29.0631                57.2761

                     49                     50                     51
                      A                      A                      A
 Frequencies --   2993.7098              3015.5126              3021.7093
 Red. masses --      1.0815                 1.0785                 1.0432
 Frc consts  --      5.7106                 5.7784                 5.6123
 IR Inten    --      7.9919                37.7735                36.8576

                     52                     53                     54
                      A                      A                      A
 Frequencies --   3090.0906              3100.1519              3145.1216
 Red. masses --      1.0992                 1.1008                 1.0874
 Frc consts  --      6.1841                 6.2333                 6.3372
 IR Inten    --     34.6403                31.9574                 2.6007

                     55                     56                     57
                      A                      A                      A
 Frequencies --   3386.3921              3473.2598              3484.1456
 Red. masses --      1.0745                 1.0499                 1.0512
 Frc consts  --      7.2601                 7.4623                 7.5184
 IR Inten    --      1.7949                 0.2876                 0.1790

                     58                     59                     60
                      A                      A                      A
 Frequencies --   3496.0462              3554.2552              3579.2098
 Red. masses --      1.0739                 1.0910                 1.0900
 Frc consts  --      7.7331                 8.1205                 8.2272
 IR Inten    --     11.7344                 0.1787                 0.7696

 - Thermochemistry -
 -------------------
 Temperature   298.150 Kelvin.  Pressure   1.00000 Atm.
 Atom     1 has atomic number  6 and mass  12.00000

 Molecular mass:   131.11710 amu.
 Principal axes and moments of inertia in atomic units:
                           1         2         3
     Eigenvalues --   495.182502548.446552924.22566
           X            0.99999  -0.00324   0.00404
           Y            0.00322   0.99998   0.00502
           Z           -0.00406  -0.00501   0.99998
 This molecule is an asymmetric top.
 Rotational symmetry number  1.
 Warning -- assumption of classical behavior for rotation
           may cause significant error
 Rotational temperatures (Kelvin)      0.17491     0.03399     0.02962
 Rotational constants (GHZ):           3.64460     0.70817     0.61717
 Zero-point vibrational energy     509301.8 (Joules/Mol)
                                  121.72605 (Kcal/Mol)
 Warning -- explicit consideration of  15 degrees of freedom as
           vibrations may cause significant error
 Vibrational temperatures:     59.92    99.52   141.82   183.25   299.11
          (Kelvin)            333.04   355.31   376.16   424.02   460.81
                              517.81   555.41   629.96   688.83   788.15
                              930.89  1013.24  1177.62  1254.45  1305.55
                             1310.46  1324.69  1346.52  1437.18  1476.24
                             1559.51  1569.06  1655.06  1693.07  1703.58
                             1718.10  1771.78  1849.42  1883.46  1966.10
                             1984.23  2011.34  2023.35  2034.27  2108.56
                             2145.99  2151.93  2161.29  2170.36  2257.78
                             2379.06  2386.02  4235.63  4307.28  4338.65
                             4347.57  4445.95  4460.43  4525.13  4872.26
                             4997.25  5012.91  5030.03  5113.78  5149.68

 Zero-point correction=                           0.193983 (Hartree/Particle)
 Thermal correction to Energy=                    0.204997
 Thermal correction to Enthalpy=                  0.205941
 Thermal correction to Gibbs Free Energy=         0.157161
 Sum of electronic and zero-point Energies=           -433.780043
 Sum of electronic and thermal Energies=              -433.769029
 Sum of electronic and thermal Enthalpies=            -433.768085
 Sum of electronic and thermal Free Energies=         -433.816865

                     E (Thermal)             CV                S
                      KCal/Mol        Cal/Mol-Kelvin    Cal/Mol-Kelvin
 Total                  128.637             39.691            102.666
 Electronic               0.000              0.000              0.000
 Translational            0.889              2.981             40.526
 Rotational               0.889              2.981             29.691
 Vibrational            126.860             33.730             32.450
 Vibration     1          0.594              1.981              5.179
 Vibration     2          0.598              1.969              4.177
 Vibration     3          0.604              1.950              3.482
 Vibration     4          0.611              1.926              2.985
 Vibration     5          0.641              1.829              2.062
 Vibration     6          0.653              1.793              1.867
 Vibration     7          0.661              1.768              1.752
 Vibration     8          0.669              1.743              1.652
 Vibration     9          0.689              1.684              1.447
 Vibration    10          0.706              1.635              1.309
 Vibration    11          0.734              1.555              1.123
 Vibration    12          0.755              1.500              1.015
 Vibration    13          0.798              1.388              0.833
 Vibration    14          0.835              1.297              0.713
 Vibration    15          0.903              1.145              0.549

 Optimization completed.
    -- Stationary point found.
 Normal termination of Gaussian 16 at Mon May 31 19:13:00 2021.
