 Gaussian 16, Revision A.03,
 Gaussian 16:  ES64L-G16RevA.03 25-Dec-2016

 -----------------------------
 # opt freq b3lyp/6-31g(2df,p)
 -----------------------------

 -------------------
 Title Card Required
 -------------------
 Symbolic Z-matrix:
 Charge =  0 Multiplicity = 1

 SCF Done:  E(RB3LYP) =  -417.908858381     A.U. after   13 cycles
 SCF Done:  E(RB3LYP) =  -417.916240521     A.U. after   13 cycles
 SCF Done:  E(RB3LYP) =  -417.919333196     A.U. after   13 cycles
 SCF Done:  E(RB3LYP) =  -417.920320406     A.U. after   13 cycles
 SCF Done:  E(RB3LYP) =  -417.920940014     A.U. after   12 cycles
 SCF Done:  E(RB3LYP) =  -417.921116357     A.U. after   13 cycles
 SCF Done:  E(RB3LYP) =  -417.921268201     A.U. after   13 cycles
 SCF Done:  E(RB3LYP) =  -417.921369886     A.U. after   12 cycles
 SCF Done:  E(RB3LYP) =  -417.921454701     A.U. after   13 cycles
 SCF Done:  E(RB3LYP) =  -417.921461896     A.U. after   10 cycles
 SCF Done:  E(RB3LYP) =  -417.921464154     A.U. after   11 cycles
 SCF Done:  E(RB3LYP) =  -417.921464719     A.U. after    9 cycles
 SCF Done:  E(RB3LYP) =  -417.921464897     A.U. after    9 cycles
 SCF Done:  E(RB3LYP) =  -417.921464944     A.U. after    7 cycles
 Optimization completed.
    -- Stationary point found.
 Normal termination of Gaussian 16 at Mon May 31 19:36:43 2021.

 ----------------------------------------------------------------------
 #N Geom=AllCheck Guess=TCheck SCRF=Check GenChk RB3LYP/6-31G(2df,p) Fr
 eq
 ----------------------------------------------------------------------

 Structure from the checkpoint file:  "CCpNpCNpCpCNdN.chk"
 -------------------
 Title Card Required
 -------------------
 Charge =  0 Multiplicity = 1

                         Standard orientation:
 ---------------------------------------------------------------------
 Center     Atomic      Atomic             Coordinates (Angstroms)
 Number     Number       Type             X           Y           Z
 ---------------------------------------------------------------------
      1          6           0       -3.141849   -1.178263   -0.051838
      2          6           0       -2.031463   -0.163691   -0.372357
      3          7           0       -2.460006    1.234723   -0.205026
      4          6           0       -0.780586   -0.456940    0.477473
      5          7           0        0.459135    0.110102   -0.043908
      6          6           0        0.634837    1.532282    0.241622
      7          6           0        1.629359   -0.648502    0.327972
      8          7           0        2.736772   -0.355263   -0.607429
      9          7           0        3.817819   -0.205239   -0.017703
     10          1           0       -4.043979   -0.957530   -0.632034
     11          1           0       -3.412074   -1.139294    1.010930
     12          1           0       -2.836932   -2.204949   -0.283330
     13          1           0       -1.733555   -0.278842   -1.421136
     14          1           0       -2.803293    1.369415    0.744063
     15          1           0       -3.250044    1.423916   -0.815814
     16          1           0       -0.657249   -1.544459    0.506416
     17          1           0       -0.977681   -0.140948    1.522520
     18          1           0       -0.240152    2.080901   -0.104523
     19          1           0        1.521736    1.900765   -0.280841
     20          1           0        0.770693    1.727267    1.323471
     21          1           0        1.419052   -1.716798    0.194715
     22          1           0        1.975662   -0.483283    1.367095
     23          1           0        4.529991   -0.035731   -0.750305
 ---------------------------------------------------------------------

 SCF Done:  E(RB3LYP) =  -417.921464944     A.U. after    1 cycles

 The electronic state is 1-A.
 Alpha  occ. eigenvalues --  -14.37690 -14.36935 -14.31722 -14.31030 -10.22470
 Alpha  occ. eigenvalues --  -10.21042 -10.20530 -10.18283 -10.17656  -1.02511
 Alpha  occ. eigenvalues --   -0.92067  -0.88098  -0.75658  -0.73505  -0.69149
 Alpha  occ. eigenvalues --   -0.64028  -0.58127  -0.56716  -0.50002  -0.49532
 Alpha  occ. eigenvalues --   -0.48030  -0.45238  -0.44703  -0.41563  -0.41309
 Alpha  occ. eigenvalues --   -0.40485  -0.39321  -0.38333  -0.37109  -0.35401
 Alpha  occ. eigenvalues --   -0.34862  -0.33898  -0.33358  -0.24087  -0.22521
 Alpha  occ. eigenvalues --   -0.20860
 Alpha virt. eigenvalues --   -0.03825   0.07121   0.10748   0.11250   0.11904
 Alpha virt. eigenvalues --    0.12996   0.13578   0.15566   0.16078   0.16484
 Alpha virt. eigenvalues --    0.16931   0.17519   0.18271   0.18741   0.20354

 Mulliken charges:
               1
     1  C   -0.391420
     2  C    0.044029
     3  N   -0.502378
     4  C   -0.127152
     5  N   -0.056100
     6  C   -0.341694
     7  C   -0.068852
     8  N   -0.114347
     9  N   -0.274198
    10  H    0.107053
    11  H    0.109385
    12  H    0.113640
    13  H    0.093887
    14  H    0.218952
    15  H    0.224300
    16  H    0.093870
    17  H    0.071049
    18  H    0.156934
    19  H    0.118636
    20  H    0.082329
    21  H    0.113715
    22  H    0.084984
    23  H    0.243379
 Sum of Mulliken charges =  -0.00000

 Dipole moment (field-independent basis, Debye):
    X=             -1.9306    Y=             -0.5779    Z=              0.4316  Tot=              2.0609
 Quadrupole moment (field-independent basis, Debye-Ang):
   XX=            -49.8590   YY=            -56.1989   ZZ=            -57.7981
   XY=             -0.4451   XZ=             -2.6320   YZ=              0.2404

  Exact polarizability: 112.966   3.074  77.114  -1.390   0.008  70.426
 Approx polarizability: 137.473   3.485 110.366   0.947   0.941 111.443

                      1                      2                      3
                      A                      A                      A
 Frequencies --     34.6851                54.0790                65.4282
 Red. masses --      4.0019                 3.9136                 4.2842
 Frc consts  --      0.0028                 0.0067                 0.0108
 IR Inten    --      0.1331                 0.0898                 0.1458

                      4                      5                      6
                      A                      A                      A
 Frequencies --    139.9274               172.9350               236.9141
 Red. masses --      2.1643                 3.0428                 1.0794
 Frc consts  --      0.0250                 0.0536                 0.0357
 IR Inten    --      0.9401                 2.4652                 8.5636

                      7                      8                      9
                      A                      A                      A
 Frequencies --    241.8360               261.8586               285.2368
 Red. masses --      1.2468                 1.1915                 3.4357
 Frc consts  --      0.0430                 0.0481                 0.1647
 IR Inten    --      1.8317                17.0382                 6.4449

                     10                     11                     12
                      A                      A                      A
 Frequencies --    320.5114               331.3864               379.8576
 Red. masses --      2.4275                 2.6517                 2.3243
 Frc consts  --      0.1469                 0.1716                 0.1976
 IR Inten    --      4.9241                 2.7839                 5.4485

                     13                     14                     15
                      A                      A                      A
 Frequencies --    440.4512               457.2920               502.5380
 Red. masses --      2.2157                 2.1901                 2.6444
 Frc consts  --      0.2533                 0.2698                 0.3935
 IR Inten    --      1.8500                11.9986                 6.3805

                     16                     17                     18
                      A                      A                      A
 Frequencies --    597.8773               825.9175               835.7004
 Red. masses --      3.3732                 1.9401                 2.3261
 Frc consts  --      0.7104                 0.7797                 0.9572
 IR Inten    --      1.6912                34.1848                14.0972

                     19                     20                     21
                      A                      A                      A
 Frequencies --    888.5784               897.6333               946.1839
 Red. masses --      1.9095                 1.6397                 1.5452
 Frc consts  --      0.8883                 0.7784                 0.8151
 IR Inten    --     58.6741                26.5481                29.0689

                     22                     23                     24
                      A                      A                      A
 Frequencies --    964.2737               995.8720              1033.7153
 Red. masses --      1.7738                 2.5461                 1.4745
 Frc consts  --      0.9717                 1.4878                 0.9283
 IR Inten    --      4.1482                 8.8485                 1.5413

                     25                     26                     27
                      A                      A                      A
 Frequencies --   1075.2641              1077.4401              1094.5380
 Red. masses --      2.2124                 1.7911                 2.3195
 Frc consts  --      1.5071                 1.2250                 1.6372
 IR Inten    --     16.6384                86.4317                48.0526

                     28                     29                     30
                      A                      A                      A
 Frequencies --   1152.7090              1173.9103              1186.1881
 Red. masses --      1.2941                 1.9808                 1.6553
 Frc consts  --      1.0131                 1.6082                 1.3723
 IR Inten    --      8.4597                26.4266                14.3662

                     31                     32                     33
                      A                      A                      A
 Frequencies --   1220.3279              1270.9042              1306.2401
 Red. masses --      1.5438                 1.8104                 1.5481
 Frc consts  --      1.3546                 1.7229                 1.5563
 IR Inten    --     23.2093                 5.2378                 5.4871

                     34                     35                     36
                      A                      A                      A
 Frequencies --   1324.7626              1351.5306              1381.7930
 Red. masses --      1.4266                 1.2978                 1.4408
 Frc consts  --      1.4751                 1.3968                 1.6208
 IR Inten    --     20.0611                 8.0248                55.8383

                     37                     38                     39
                      A                      A                      A
 Frequencies --   1402.4234              1413.3205              1426.0837
 Red. masses --      1.2540                 1.2546                 1.3262
 Frc consts  --      1.4532                 1.4765                 1.5890
 IR Inten    --      5.2340                 8.7325                 1.9206

                     40                     41                     42
                      A                      A                      A
 Frequencies --   1456.6320              1467.2636              1487.6968
 Red. masses --      1.1582                 1.0894                 1.1268
 Frc consts  --      1.4479                 1.3819                 1.4694
 IR Inten    --      2.8266                 3.5352                 5.1258

                     43                     44                     45
                      A                      A                      A
 Frequencies --   1491.8990              1493.8068              1495.9263
 Red. masses --      1.2459                 1.0503                 1.0535
 Frc consts  --      1.6338                 1.3809                 1.3890
 IR Inten    --     19.6684                 3.4380                 3.1498

                     46                     47                     48
                      A                      A                      A
 Frequencies --   1503.4935              1516.2037              1652.3358
 Red. masses --      1.1038                 1.0572                 9.9832
 Frc consts  --      1.4701                 1.4320                16.0590
 IR Inten    --      9.6252                 9.4772                 3.0886

                     49                     50                     51
                      A                      A                      A
 Frequencies --   1654.2008              2892.6449              2909.4404
 Red. masses --      1.0911                 1.0715                 1.0679
 Frc consts  --      1.7591                 5.2822                 5.3261
 IR Inten    --     25.2223                45.1447                38.9214

                     52                     53                     54
                      A                      A                      A
 Frequencies --   2920.5256              3018.0032              3043.0831
 Red. masses --      1.0622                 1.0362                 1.0842
 Frc consts  --      5.3378                 5.5605                 5.9154
 IR Inten    --    120.6258                21.6375                15.2646

                     55                     56                     57
                      A                      A                      A
 Frequencies --   3047.0207              3065.2668              3084.6617
 Red. masses --      1.0898                 1.0866                 1.0739
 Frc consts  --      5.9613                 6.0155                 6.0207
 IR Inten    --      6.0545                27.8616                28.0180

                     58                     59                     60
                      A                      A                      A
 Frequencies --   3088.0969              3096.1777              3157.1458
 Red. masses --      1.0995                 1.1013                 1.0996
 Frc consts  --      6.1775                 6.2203                 6.4576
 IR Inten    --     46.6831                36.0794                 0.6091

                     61                     62                     63
                      A                      A                      A
 Frequencies --   3241.0846              3467.4303              3548.7182
 Red. masses --      1.0738                 1.0496                 1.0911
 Frc consts  --      6.6461                 7.4352                 8.0957
 IR Inten    --     32.9333                 0.6839                 0.2044

 - Thermochemistry -
 -------------------
 Temperature   298.150 Kelvin.  Pressure   1.00000 Atm.
 Atom     1 has atomic number  6 and mass  12.00000

 Molecular mass:   130.12185 amu.
 Principal axes and moments of inertia in atomic units:
                           1         2         3
     Eigenvalues --   457.675482574.280042861.38625
           X            0.99992   0.01234   0.00167
           Y           -0.01234   0.99992  -0.00106
           Z           -0.00168   0.00104   1.00000
 This molecule is an asymmetric top.
 Rotational symmetry number  1.
 Warning -- assumption of classical behavior for rotation
           may cause significant error
 Rotational temperatures (Kelvin)      0.18925     0.03365     0.03027
 Rotational constants (GHZ):           3.94328     0.70107     0.63072
 Zero-point vibrational energy     535728.9 (Joules/Mol)
                                  128.04229 (Kcal/Mol)
 Warning -- explicit consideration of  16 degrees of freedom as
           vibrations may cause significant error
 Vibrational temperatures:     49.90    77.81    94.14   201.32   248.81
          (Kelvin)            340.87   347.95   376.76   410.39   461.14
                              476.79   546.53   633.71   657.94   723.04
                              860.21  1188.31  1202.39  1278.47  1291.49
                             1361.35  1387.37  1432.84  1487.29  1547.07
                             1550.20  1574.80  1658.49  1689.00  1706.66
                             1755.78  1828.55  1879.39  1906.04  1944.55
                             1988.09  2017.77  2033.45  2051.82  2095.77
                             2111.07  2140.46  2146.51  2149.25  2152.30
                             2163.19  2181.48  2377.34  2380.03  4161.87
                             4186.04  4201.99  4342.23  4378.32  4383.98
                             4410.24  4438.14  4443.08  4454.71  4542.43
                             4663.20  4988.86  5105.81

 Zero-point correction=                           0.204048 (Hartree/Particle)
 Thermal correction to Energy=                    0.215254
 Thermal correction to Enthalpy=                  0.216198
 Thermal correction to Gibbs Free Energy=         0.166502
 Sum of electronic and zero-point Energies=           -417.717417
 Sum of electronic and thermal Energies=              -417.706211
 Sum of electronic and thermal Enthalpies=            -417.705267
 Sum of electronic and thermal Free Energies=         -417.754963

                     E (Thermal)             CV                S
                      KCal/Mol        Cal/Mol-Kelvin    Cal/Mol-Kelvin
 Total                  135.074             39.705            104.594
 Electronic               0.000              0.000              0.000
 Translational            0.889              2.981             40.503
 Rotational               0.889              2.981             29.601
 Vibrational            133.296             33.743             34.490
 Vibration     1          0.594              1.983              5.542
 Vibration     2          0.596              1.976              4.662
 Vibration     3          0.597              1.971              4.286
 Vibration     4          0.615              1.913              2.805
 Vibration     5          0.626              1.876              2.403
 Vibration     6          0.656              1.784              1.826
 Vibration     7          0.658              1.776              1.789
 Vibration     8          0.669              1.743              1.649
 Vibration     9          0.683              1.701              1.502
 Vibration    10          0.706              1.634              1.307
 Vibration    11          0.714              1.613              1.253
 Vibration    12          0.750              1.513              1.040
 Vibration    13          0.800              1.382              0.825
 Vibration    14          0.815              1.345              0.774
 Vibration    15          0.858              1.244              0.652
 Vibration    16          0.956              1.036              0.453

 Optimization completed.
    -- Stationary point found.
 Normal termination of Gaussian 16 at Mon May 31 20:09:04 2021.
