 Gaussian 16, Revision A.03,
 Gaussian 16:  ES64L-G16RevA.03 25-Dec-2016

 -----------------------------
 # opt freq b3lyp/6-31g(2df,p)
 -----------------------------

 -------------------
 Title Card Required
 -------------------
 Symbolic Z-matrix:
 Charge =  0 Multiplicity = 1

 SCF Done:  E(RB3LYP) =  -432.765457721     A.U. after   14 cycles
 SCF Done:  E(RB3LYP) =  -432.772951625     A.U. after   12 cycles
 SCF Done:  E(RB3LYP) =  -432.773636032     A.U. after   11 cycles
 SCF Done:  E(RB3LYP) =  -432.773864803     A.U. after   12 cycles
 SCF Done:  E(RB3LYP) =  -432.774723405     A.U. after   13 cycles
 SCF Done:  E(RB3LYP) =  -432.746398783     A.U. after   13 cycles
 SCF Done:  E(RB3LYP) =  -432.777188179     A.U. after   13 cycles
 SCF Done:  E(RB3LYP) =  -432.778767201     A.U. after   15 cycles
 SCF Done:  E(RB3LYP) =  -432.777305930     A.U. after   12 cycles
 SCF Done:  E(RB3LYP) =  -432.780044320     A.U. after   12 cycles
 SCF Done:  E(RB3LYP) =  -432.780111929     A.U. after   10 cycles
 SCF Done:  E(RB3LYP) =  -432.780140158     A.U. after   10 cycles
 SCF Done:  E(RB3LYP) =  -432.780154386     A.U. after   10 cycles
 SCF Done:  E(RB3LYP) =  -432.780165455     A.U. after   10 cycles
 SCF Done:  E(RB3LYP) =  -432.780168186     A.U. after    8 cycles
 SCF Done:  E(RB3LYP) =  -432.780169348     A.U. after    8 cycles
 SCF Done:  E(RB3LYP) =  -432.780172085     A.U. after    8 cycles
 SCF Done:  E(RB3LYP) =  -432.780173520     A.U. after    8 cycles
 SCF Done:  E(RB3LYP) =  -432.780173838     A.U. after    7 cycles
 Optimization completed.
    -- Stationary point found.
 Normal termination of Gaussian 16 at Mon May 31 15:26:19 2021.

 ----------------------------------------------------------------------
 #N Geom=AllCheck Guess=TCheck SCRF=Check GenChk RB3LYP/6-31G(2df,p) Fr
 eq
 ----------------------------------------------------------------------

 Structure from the checkpoint file:  "CCpNppNpCdNNCdN.chk"
 -------------------
 Title Card Required
 -------------------
 Charge =  0 Multiplicity = 1

                         Standard orientation:
 ---------------------------------------------------------------------
 Center     Atomic      Atomic             Coordinates (Angstroms)
 Number     Number       Type             X           Y           Z
 ---------------------------------------------------------------------
      1          6           0       -2.360842    0.166331    1.379503
      2          6           0       -1.781052   -0.009637   -0.041574
      3          7           0       -1.736894   -1.409428   -0.476165
      4          7           0       -2.577582    0.828077   -0.948356
      5          6           0       -0.376117    0.563232   -0.055626
      6          7           0        0.653191   -0.184364   -0.017759
      7          7           0        1.879403    0.392454    0.000935
      8          6           0        3.016462   -0.386478    0.013708
      9          7           0        4.229394   -0.002826    0.019956
     10          1           0       -3.393096   -0.204579    1.407457
     11          1           0       -2.374121    1.218134    1.679721
     12          1           0       -1.770877   -0.402087    2.102667
     13          1           0       -2.508521   -1.927363   -0.066888
     14          1           0       -0.873149   -1.840284   -0.159090
     15          1           0       -3.563044    0.612866   -0.818923
     16          1           0       -2.357326    0.543163   -1.900002
     17          1           0       -0.318460    1.657046   -0.079666
     18          1           0        1.959746    1.405352   -0.023617
     19          1           0        2.770824   -1.448331    0.021497
     20          1           0        4.304741    1.018000    0.010508
 ---------------------------------------------------------------------

 SCF Done:  E(RB3LYP) =  -432.780173838     A.U. after    1 cycles

 The electronic state is 1-A.
 Alpha  occ. eigenvalues --  -14.39534 -14.37903 -14.31002 -14.30572 -14.29773
 Alpha  occ. eigenvalues --  -10.25310 -10.25309 -10.22375 -10.18507  -1.03143
 Alpha  occ. eigenvalues --   -0.92899  -0.90117  -0.83834  -0.81835  -0.73006
 Alpha  occ. eigenvalues --   -0.65963  -0.63716  -0.57659  -0.53647  -0.52090
 Alpha  occ. eigenvalues --   -0.49766  -0.47408  -0.45185  -0.43914  -0.42206
 Alpha  occ. eigenvalues --   -0.41866  -0.39696  -0.37668  -0.36689  -0.32652
 Alpha  occ. eigenvalues --   -0.29837  -0.26775  -0.26498  -0.23483  -0.22672
 Alpha virt. eigenvalues --   -0.01298   0.04374   0.06890   0.07415   0.10862
 Alpha virt. eigenvalues --    0.12535   0.13231   0.14092   0.15306   0.15878
 Alpha virt. eigenvalues --    0.16901   0.17581   0.18595   0.20816   0.22780

 Mulliken charges:
               1
     1  C   -0.405230
     2  C    0.180662
     3  N   -0.542683
     4  N   -0.517517
     5  C    0.041029
     6  N   -0.132832
     7  N   -0.243276
     8  C    0.177442
     9  N   -0.484384
    10  H    0.108756
    11  H    0.126028
    12  H    0.124208
    13  H    0.215450
    14  H    0.237692
    15  H    0.220445
    16  H    0.229199
    17  H    0.095392
    18  H    0.238946
    19  H    0.128216
    20  H    0.202459
 Sum of Mulliken charges =  -0.00000

 Dipole moment (field-independent basis, Debye):
    X=             -3.1254    Y=              1.2959    Z=              0.9022  Tot=              3.5016
 Quadrupole moment (field-independent basis, Debye-Ang):
   XX=            -65.0872   YY=            -51.3777   ZZ=            -55.6041
   XY=              8.7996   XZ=             -1.5216   YZ=             -1.3156

  Exact polarizability: 136.375  -1.159  73.673  -0.706  -0.776  56.468
 Approx polarizability: 185.085  -7.322 112.982   0.420  -1.453  81.725

                      1                      2                      3
                      A                      A                      A
 Frequencies --     49.7215                88.7565               115.1322
 Red. masses --      4.1627                 2.8144                 4.2230
 Frc consts  --      0.0061                 0.0131                 0.0330
 IR Inten    --      2.3424                 5.7438                 8.5629

                      4                      5                      6
                      A                      A                      A
 Frequencies --    157.4340               207.5377               247.7682
 Red. masses --      2.5071                 1.1209                 1.1100
 Frc consts  --      0.0366                 0.0284                 0.0401
 IR Inten    --      5.9290                45.3301                14.9864

                      7                      8                      9
                      A                      A                      A
 Frequencies --    282.6417               291.8229               299.2309
 Red. masses --      2.0838                 2.6214                 1.4608
 Frc consts  --      0.0981                 0.1315                 0.0771
 IR Inten    --     15.2640                 8.5203                 5.3576

                     10                     11                     12
                      A                      A                      A
 Frequencies --    320.8512               377.1711               405.7469
 Red. masses --      3.2689                 2.5467                 3.2495
 Frc consts  --      0.1983                 0.2135                 0.3152
 IR Inten    --     16.5702                 1.4740                22.3169

                     13                     14                     15
                      A                      A                      A
 Frequencies --    503.4495               508.7351               515.8981
 Red. masses --      1.2611                 3.5248                 2.5055
 Frc consts  --      0.1883                 0.5375                 0.3929
 IR Inten    --     45.9685                 9.2185                16.3961

                     16                     17                     18
                      A                      A                      A
 Frequencies --    546.3434               660.0632               802.5308
 Red. masses --      2.8830                 4.2182                 3.5394
 Frc consts  --      0.5070                 1.0828                 1.3431
 IR Inten    --      3.5015                 7.2673                50.1963

                     19                     20                     21
                      A                      A                      A
 Frequencies --    830.0587               873.6594               901.8227
 Red. masses --      1.8899                 1.9397                 1.3749
 Frc consts  --      0.7672                 0.8723                 0.6588
 IR Inten    --     37.9546               135.1919                85.2382

                     22                     23                     24
                      A                      A                      A
 Frequencies --    932.9887               968.0461               981.6828
 Red. masses --      1.6079                 1.7632                 1.5854
 Frc consts  --      0.8246                 0.9735                 0.9002
 IR Inten    --     17.3024                 4.3231                 9.3073

                     25                     26                     27
                      A                      A                      A
 Frequencies --   1019.6540              1089.3651              1094.9411
 Red. masses --      1.4462                 1.1203                 2.0375
 Frc consts  --      0.8859                 0.7833                 1.4392
 IR Inten    --     33.7524                44.2124                61.4838

                     28                     29                     30
                      A                      A                      A
 Frequencies --   1146.9586              1192.4004              1223.9590
 Red. masses --      1.7599                 2.6428                 2.9800
 Frc consts  --      1.3640                 2.2139                 2.6303
 IR Inten    --     50.8224                97.9115                42.1762

                     31                     32                     33
                      A                      A                      A
 Frequencies --   1258.9827              1286.8568              1330.5052
 Red. masses --      1.6620                 1.8564                 1.4397
 Frc consts  --      1.5521                 1.8112                 1.5016
 IR Inten    --     34.0965               198.9728               113.9972

                     34                     35                     36
                      A                      A                      A
 Frequencies --   1389.9523              1395.6566              1400.5916
 Red. masses --      1.3263                 1.2889                 1.4687
 Frc consts  --      1.5097                 1.4792                 1.6975
 IR Inten    --     11.0949                 6.8684                 8.5577

                     37                     38                     39
                      A                      A                      A
 Frequencies --   1484.9910              1489.2944              1502.7815
 Red. masses --      1.0802                 1.3000                 1.3686
 Frc consts  --      1.4035                 1.6989                 1.8210
 IR Inten    --      0.9686                 0.6546                 0.9445

                     40                     41                     42
                      A                      A                      A
 Frequencies --   1639.2745              1664.7914              1710.7698
 Red. masses --      1.1011                 1.0997                 7.7372
 Frc consts  --      1.7433                 1.7957                13.3419
 IR Inten    --     52.8755                27.6480               192.5960

                     43                     44                     45
                      A                      A                      A
 Frequencies --   1732.8893              3023.9561              3061.6979
 Red. masses --      6.3853                 1.0392                 1.0876
 Frc consts  --     11.2972                 5.5988                 6.0069
 IR Inten    --    251.7051                27.8736                26.7226

                     46                     47                     48
                      A                      A                      A
 Frequencies --   3096.2616              3126.3185              3149.8956
 Red. masses --      1.0959                 1.1027                 1.0898
 Frc consts  --      6.1900                 6.3500                 6.3704
 IR Inten    --     27.7934                18.3421                 8.4289

                     49                     50                     51
                      A                      A                      A
 Frequencies --   3430.8701              3476.8018              3489.5127
 Red. masses --      1.0739                 1.0493                 1.0485
 Frc consts  --      7.4474                 7.4732                 7.5223
 IR Inten    --      8.7953                 1.4802                 7.2061

                     52                     53                     54
                      A                      A                      A
 Frequencies --   3499.8693              3552.9137              3575.6341
 Red. masses --      1.0751                 1.0914                 1.0931
 Frc consts  --      7.7589                 8.1171                 8.2344
 IR Inten    --      4.4285                 1.0098                 4.6251

 - Thermochemistry -
 -------------------
 Temperature   298.150 Kelvin.  Pressure   1.00000 Atm.
 Atom     1 has atomic number  6 and mass  12.00000

 Molecular mass:   129.10145 amu.
 Principal axes and moments of inertia in atomic units:
                           1         2         3
     Eigenvalues --   413.027602803.865552843.79872
           X            0.99996   0.00573  -0.00727
           Y           -0.00599   0.99934  -0.03576
           Z            0.00706   0.03580   0.99933
 This molecule is an asymmetric top.
 Rotational symmetry number  1.
 Rotational temperatures (Kelvin)      0.20970     0.03089     0.03046
 Rotational constants (GHZ):           4.36954     0.64366     0.63462
 Zero-point vibrational energy     445055.3 (Joules/Mol)
                                  106.37078 (Kcal/Mol)
 Warning -- explicit consideration of  16 degrees of freedom as
           vibrations may cause significant error
 Vibrational temperatures:     71.54   127.70   165.65   226.51   298.60
          (Kelvin)            356.48   406.66   419.87   430.53   461.63
                              542.67   583.78   724.35   731.96   742.26
                              786.07   949.68  1154.66  1194.27  1257.00
                             1297.52  1342.36  1392.80  1412.42  1467.05
                             1567.35  1575.38  1650.22  1715.60  1761.00
                             1811.40  1851.50  1914.30  1999.83  2008.04
                             2015.14  2136.57  2142.76  2162.17  2358.55
                             2395.26  2461.42  2493.24  4350.80  4405.10
                             4454.83  4498.08  4532.00  4936.26  5002.34
                             5020.63  5035.53  5111.85  5144.54

 Zero-point correction=                           0.169513 (Hartree/Particle)
 Thermal correction to Energy=                    0.180221
 Thermal correction to Enthalpy=                  0.181165
 Thermal correction to Gibbs Free Energy=         0.133549
 Sum of electronic and zero-point Energies=           -432.610661
 Sum of electronic and thermal Energies=              -432.599953
 Sum of electronic and thermal Enthalpies=            -432.599008
 Sum of electronic and thermal Free Energies=         -432.646625

                     E (Thermal)             CV                S
                      KCal/Mol        Cal/Mol-Kelvin    Cal/Mol-Kelvin
 Total                  113.091             39.036            100.218
 Electronic               0.000              0.000              0.000
 Translational            0.889              2.981             40.479
 Rotational               0.889              2.981             29.578
 Vibrational            111.313             33.074             30.161
 Vibration     1          0.595              1.978              4.828
 Vibration     2          0.602              1.957              3.687
 Vibration     3          0.608              1.937              3.180
 Vibration     4          0.621              1.894              2.580
 Vibration     5          0.641              1.829              2.065
 Vibration     6          0.661              1.766              1.746
 Vibration     7          0.682              1.706              1.518
 Vibration     8          0.687              1.689              1.463
 Vibration     9          0.692              1.675              1.421
 Vibration    10          0.706              1.634              1.306
 Vibration    11          0.748              1.519              1.050
 Vibration    12          0.771              1.458              0.942
 Vibration    13          0.859              1.242              0.650
 Vibration    14          0.864              1.231              0.637
 Vibration    15          0.871              1.215              0.620
 Vibration    16          0.902              1.148              0.552

 Optimization completed.
    -- Stationary point found.
 Normal termination of Gaussian 16 at Mon May 31 15:51:21 2021.
