 Gaussian 16, Revision A.03,
 Gaussian 16:  ES64L-G16RevA.03 25-Dec-2016

 -----------------------------
 # opt freq b3lyp/6-31g(2df,p)
 -----------------------------

 -------------------
 Title Card Required
 -------------------
 Symbolic Z-matrix:
 Charge =  0 Multiplicity = 1

 SCF Done:  E(RB3LYP) =  -398.277862819     A.U. after   15 cycles
 SCF Done:  E(RB3LYP) =  -398.301715357     A.U. after   13 cycles
 SCF Done:  E(RB3LYP) =  -398.302755274     A.U. after   12 cycles
 SCF Done:  E(RB3LYP) =  -398.302994020     A.U. after   11 cycles
 SCF Done:  E(RB3LYP) =  -398.303075189     A.U. after   11 cycles
 SCF Done:  E(RB3LYP) =  -398.303108246     A.U. after   10 cycles
 SCF Done:  E(RB3LYP) =  -398.303114484     A.U. after   10 cycles
 SCF Done:  E(RB3LYP) =  -398.303118334     A.U. after    9 cycles
 SCF Done:  E(RB3LYP) =  -398.303118713     A.U. after    8 cycles
 Optimization completed.
    -- Stationary point found.
 Normal termination of Gaussian 16 at Tue Jun  1 10:19:39 2021.

 ----------------------------------------------------------------------
 #N Geom=AllCheck Guess=TCheck SCRF=Check GenChk RB3LYP/6-31G(2df,p) Fr
 eq
 ----------------------------------------------------------------------

 Structure from the checkpoint file:  "CCpNpCpCtNpCCtN.chk"
 -------------------
 Title Card Required
 -------------------
 Charge =  0 Multiplicity = 1

                         Standard orientation:
 ---------------------------------------------------------------------
 Center     Atomic      Atomic             Coordinates (Angstroms)
 Number     Number       Type             X           Y           Z
 ---------------------------------------------------------------------
      1          6           0       -2.555026    0.492529   -0.385442
      2          6           0       -1.464907   -0.363237    0.270796
      3          7           0       -1.592194   -1.800886    0.009049
      4          6           0       -0.036855    0.074500   -0.175050
      5          6           0        0.169052    1.509231    0.034725
      6          7           0        0.319577    2.638466    0.228243
      7          6           0        1.051323   -0.749146    0.563883
      8          6           0        2.379106   -0.597940   -0.021111
      9          7           0        3.424016   -0.488764   -0.501742
     10          1           0       -3.541649    0.161645   -0.047823
     11          1           0       -2.521120    0.391182   -1.476999
     12          1           0       -2.447753    1.552671   -0.140922
     13          1           0       -1.517081   -0.231914    1.358742
     14          1           0       -1.792614   -1.957480   -0.976073
     15          1           0       -2.382665   -2.176835    0.522353
     16          1           0        0.055282   -0.120867   -1.251206
     17          1           0        0.744451   -1.797874    0.517489
     18          1           0        1.087197   -0.457853    1.618781
 ---------------------------------------------------------------------

 SCF Done:  E(RB3LYP) =  -398.303118713     A.U. after    1 cycles

 The electronic state is 1-A.
 Alpha  occ. eigenvalues --  -14.34427 -14.33882 -14.33182 -10.26007 -10.25517
 Alpha  occ. eigenvalues --  -10.24758 -10.22953 -10.22492 -10.20021  -0.93044
 Alpha  occ. eigenvalues --   -0.91050  -0.90478  -0.83539  -0.76558  -0.70930
 Alpha  occ. eigenvalues --   -0.63371  -0.56177  -0.53168  -0.50966  -0.47745
 Alpha  occ. eigenvalues --   -0.45734  -0.44358  -0.43788  -0.41814  -0.39297
 Alpha  occ. eigenvalues --   -0.37816  -0.36522  -0.35914  -0.34342  -0.33462
 Alpha  occ. eigenvalues --   -0.32753  -0.32553  -0.27297
 Alpha virt. eigenvalues --    0.01659   0.01756   0.02713   0.04080   0.05686
 Alpha virt. eigenvalues --    0.08326   0.10632   0.11520   0.13208   0.13863
 Alpha virt. eigenvalues --    0.15025   0.15360   0.15999   0.18255   0.19041

 Mulliken charges:
               1
     1  C   -0.415818
     2  C    0.016945
     3  N   -0.513425
     4  C   -0.135505
     5  C    0.290861
     6  N   -0.320414
     7  C   -0.350149
     8  C    0.266376
     9  N   -0.298590
    10  H    0.119780
    11  H    0.119725
    12  H    0.153977
    13  H    0.105422
    14  H    0.233205
    15  H    0.241508
    16  H    0.140748
    17  H    0.183517
    18  H    0.161839
 Sum of Mulliken charges =  -0.00000

 Dipole moment (field-independent basis, Debye):
    X=             -5.8034    Y=             -3.5970    Z=              0.5835  Tot=              6.8526
 Quadrupole moment (field-independent basis, Debye-Ang):
   XX=            -63.0608   YY=            -63.1438   ZZ=            -50.2342
   XY=              2.3303   XZ=              3.9155   YZ=             -1.1304

  Exact polarizability:  90.955   2.792  79.877  -3.502   1.074  60.597
 Approx polarizability: 123.297   8.024 123.967 -11.169   4.100  97.722

                      1                      2                      3
                      A                      A                      A
 Frequencies --     58.6948                70.2719               124.9149
 Red. masses --      5.1672                 3.7323                 5.3014
 Frc consts  --      0.0105                 0.0109                 0.0487
 IR Inten    --      1.9253                 2.8203                 3.6805

                      4                      5                      6
                      A                      A                      A
 Frequencies --    160.5844               228.8348               246.2541
 Red. masses --      5.1142                 2.3684                 1.4704
 Frc consts  --      0.0777                 0.0731                 0.0525
 IR Inten    --      9.6303                 2.0610                28.4263

                      7                      8                      9
                      A                      A                      A
 Frequencies --    248.7727               279.9623               355.5514
 Red. masses --      1.0845                 3.6511                 2.9043
 Frc consts  --      0.0395                 0.1686                 0.2163
 IR Inten    --     14.4612                 2.4701                 2.0828

                     10                     11                     12
                      A                      A                      A
 Frequencies --    393.9177               417.9285               452.0212
 Red. masses --      3.4140                 3.9171                 2.6304
 Frc consts  --      0.3121                 0.4031                 0.3167
 IR Inten    --      1.5769                 5.8174                 5.2308

                     13                     14                     15
                      A                      A                      A
 Frequencies --    503.2010               538.4081               612.1312
 Red. masses --      6.5369                 5.5060                 3.6095
 Frc consts  --      0.9752                 0.9404                 0.7969
 IR Inten    --      5.4618                 1.5997                 0.9561

                     16                     17                     18
                      A                      A                      A
 Frequencies --    827.5090               858.6692               882.4169
 Red. masses --      2.7236                 2.2640                 1.7778
 Frc consts  --      1.0989                 0.9835                 0.8156
 IR Inten    --      1.4638                80.9380                58.0615

                     19                     20                     21
                      A                      A                      A
 Frequencies --    941.1622               956.5140              1016.7150
 Red. masses --      2.0564                 1.9981                 1.5840
 Frc consts  --      1.0732                 1.0771                 0.9647
 IR Inten    --      4.3115                 2.1286                 2.4213

                     22                     23                     24
                      A                      A                      A
 Frequencies --   1032.3441              1056.8184              1117.0141
 Red. masses --      2.4541                 2.8616                 2.8634
 Frc consts  --      1.5410                 1.8830                 2.1050
 IR Inten    --      0.6380                 4.2018                 9.7428

                     25                     26                     27
                      A                      A                      A
 Frequencies --   1168.9859              1192.4319              1214.9223
 Red. masses --      1.6049                 1.5890                 1.1728
 Frc consts  --      1.2922                 1.3312                 1.0199
 IR Inten    --     12.6418                 7.9794                11.5887

                     28                     29                     30
                      A                      A                      A
 Frequencies --   1294.5181              1335.5051              1348.6385
 Red. masses --      1.3903                 1.4944                 1.3357
 Frc consts  --      1.3727                 1.5704                 1.4314
 IR Inten    --      3.0821                 6.0187                 4.4442

                     31                     32                     33
                      A                      A                      A
 Frequencies --   1361.3037              1407.8188              1414.3927
 Red. masses --      1.2927                 1.2584                 1.2487
 Frc consts  --      1.4114                 1.4695                 1.4718
 IR Inten    --      5.6741                10.2185                 6.2259

                     34                     35                     36
                      A                      A                      A
 Frequencies --   1474.4282              1492.0531              1499.4835
 Red. masses --      1.0862                 1.0533                 1.0527
 Frc consts  --      1.3913                 1.3816                 1.3946
 IR Inten    --      5.6757                 2.2590                 7.1237

                     37                     38                     39
                      A                      A                      A
 Frequencies --   1658.9328              2359.9644              2366.1547
 Red. masses --      1.0899                12.6531                12.6042
 Frc consts  --      1.7673                41.5201                41.5767
 IR Inten    --     20.3434                 4.3161                 9.2882

                     40                     41                     42
                      A                      A                      A
 Frequencies --   3027.8324              3030.5645              3043.9351
 Red. masses --      1.0740                 1.0480                 1.0798
 Frc consts  --      5.8011                 5.6707                 5.8947
 IR Inten    --      1.6230                10.3802                14.9738

                     43                     44                     45
                      A                      A                      A
 Frequencies --   3059.4092              3101.7620              3108.6678
 Red. masses --      1.0613                 1.0990                 1.1014
 Frc consts  --      5.8526                 6.2299                 6.2712
 IR Inten    --      8.9714                24.1294                 8.2770

                     46                     47                     48
                      A                      A                      A
 Frequencies --   3122.9761              3485.8699              3572.3298
 Red. masses --      1.1014                 1.0512                 1.0904
 Frc consts  --      6.3287                 7.5260                 8.1988
 IR Inten    --     14.2406                 1.0424                 3.1762

 - Thermochemistry -
 -------------------
 Temperature   298.150 Kelvin.  Pressure   1.00000 Atm.
 Atom     1 has atomic number  6 and mass  12.00000

 Molecular mass:   123.07965 amu.
 Principal axes and moments of inertia in atomic units:
                           1         2         3
     Eigenvalues --   802.141561587.586532240.79057
           X            0.99988   0.01059   0.01164
           Y           -0.01047   0.99990  -0.01002
           Z           -0.01175   0.00989   0.99988
 This molecule is an asymmetric top.
 Rotational symmetry number  1.
 Warning -- assumption of classical behavior for rotation
           may cause significant error
 Rotational temperatures (Kelvin)      0.10798     0.05456     0.03865
 Rotational constants (GHZ):           2.24990     1.13678     0.80540
 Zero-point vibrational energy     385936.2 (Joules/Mol)
                                   92.24096 (Kcal/Mol)
 Warning -- explicit consideration of  15 degrees of freedom as
           vibrations may cause significant error
 Vibrational temperatures:     84.45   101.11   179.72   231.05   329.24
          (Kelvin)            354.30   357.93   402.80   511.56   566.76
                              601.31   650.36   723.99   774.65   880.72
                             1190.60  1235.43  1269.60  1354.12  1376.21
                             1462.83  1485.31  1520.53  1607.13  1681.91
                             1715.64  1748.00  1862.52  1921.49  1940.39
                             1958.61  2025.54  2035.00  2121.37  2146.73
                             2157.42  2386.83  3395.46  3404.37  4356.38
                             4360.31  4379.54  4401.81  4462.74  4472.68
                             4493.27  5015.39  5139.79

 Zero-point correction=                           0.146995 (Hartree/Particle)
 Thermal correction to Energy=                    0.157016
 Thermal correction to Enthalpy=                  0.157960
 Thermal correction to Gibbs Free Energy=         0.111539
 Sum of electronic and zero-point Energies=           -398.156123
 Sum of electronic and thermal Energies=              -398.146103
 Sum of electronic and thermal Enthalpies=            -398.145159
 Sum of electronic and thermal Free Energies=         -398.191579

                     E (Thermal)             CV                S
                      KCal/Mol        Cal/Mol-Kelvin    Cal/Mol-Kelvin
 Total                   98.529             35.511             97.700
 Electronic               0.000              0.000              0.000
 Translational            0.889              2.981             40.337
 Rotational               0.889              2.981             29.435
 Vibrational             96.751             29.549             27.928
 Vibration     1          0.596              1.974              4.501
 Vibration     2          0.598              1.968              4.146
 Vibration     3          0.610              1.928              3.023
 Vibration     4          0.622              1.891              2.543
 Vibration     5          0.652              1.797              1.888
 Vibration     6          0.661              1.769              1.757
 Vibration     7          0.662              1.765              1.739
 Vibration     8          0.680              1.711              1.534
 Vibration     9          0.731              1.564              1.141
 Vibration    10          0.761              1.483              0.985
 Vibration    11          0.781              1.431              0.899
 Vibration    12          0.811              1.356              0.790
 Vibration    13          0.859              1.243              0.650
 Vibration    14          0.893              1.165              0.569
 Vibration    15          0.971              1.006              0.429

 Optimization completed.
    -- Stationary point found.
 Normal termination of Gaussian 16 at Tue Jun  1 10:49:45 2021.
