 Gaussian 16, Revision A.03,
 Gaussian 16:  ES64L-G16RevA.03 25-Dec-2016

 -----------------------------
 # opt freq b3lyp/6-31g(2df,p)
 -----------------------------

 -------------------
 Title Card Required
 -------------------
 Symbolic Z-matrix:
 Charge =  0 Multiplicity = 1

 SCF Done:  E(RB3LYP) =  -401.928685861     A.U. after   13 cycles
 SCF Done:  E(RB3LYP) =  -401.934464998     A.U. after   11 cycles
 SCF Done:  E(RB3LYP) =  -401.934791827     A.U. after   11 cycles
 SCF Done:  E(RB3LYP) =  -401.934857102     A.U. after   10 cycles
 SCF Done:  E(RB3LYP) =  -401.934966539     A.U. after    9 cycles
 SCF Done:  E(RB3LYP) =  -401.934986332     A.U. after    9 cycles
 SCF Done:  E(RB3LYP) =  -401.934995991     A.U. after    9 cycles
 SCF Done:  E(RB3LYP) =  -401.934999052     A.U. after    9 cycles
 SCF Done:  E(RB3LYP) =  -401.935003209     A.U. after    9 cycles
 SCF Done:  E(RB3LYP) =  -401.935003825     A.U. after    8 cycles
 SCF Done:  E(RB3LYP) =  -401.935003901     A.U. after    7 cycles
 Optimization completed.
    -- Stationary point found.
 Normal termination of Gaussian 16 at Tue Jun  1 05:48:31 2021.

 ----------------------------------------------------------------------
 #N Geom=AllCheck Guess=TCheck SCRF=Check GenChk RB3LYP/6-31G(2df,p) Fr
 eq
 ----------------------------------------------------------------------

 Structure from the checkpoint file:  "CCpNpCpdNpCCCN.chk"
 -------------------
 Title Card Required
 -------------------
 Charge =  0 Multiplicity = 1

                         Standard orientation:
 ---------------------------------------------------------------------
 Center     Atomic      Atomic             Coordinates (Angstroms)
 Number     Number       Type             X           Y           Z
 ---------------------------------------------------------------------
      1          6           0       -3.391650    0.536044    0.329088
      2          6           0       -2.142373   -0.352380    0.326697
      3          7           0       -2.213012   -1.490915   -0.607242
      4          6           0       -0.837008    0.407851    0.042394
      5          7           0       -0.757121    1.595633   -0.405783
      6          6           0        0.425150   -0.376461    0.329715
      7          6           0        1.728060    0.326374   -0.046741
      8          6           0        2.957523   -0.536264    0.236805
      9          7           0        4.185667    0.194140   -0.095991
     10          1           0       -4.270690   -0.061091    0.591537
     11          1           0       -3.576087    0.970691   -0.660502
     12          1           0       -3.313052    1.353569    1.053700
     13          1           0       -2.034068   -0.791314    1.328261
     14          1           0       -2.383370   -1.143033   -1.547970
     15          1           0       -3.009671   -2.076261   -0.372581
     16          1           0       -1.683490    2.004884   -0.543911
     17          1           0        0.333874   -1.344688   -0.177902
     18          1           0        0.425804   -0.620975    1.403489
     19          1           0        1.818089    1.274385    0.491398
     20          1           0        1.700588    0.590077   -1.111370
     21          1           0        2.853645   -1.499862   -0.295249
     22          1           0        2.996013   -0.779046    1.307119
     23          1           0        4.199826    0.392001   -1.093137
     24          1           0        4.995634   -0.392334    0.082491
 ---------------------------------------------------------------------

 SCF Done:  E(RB3LYP) =  -401.935003901     A.U. after    1 cycles

 The electronic state is 1-A.
 Alpha  occ. eigenvalues --  -14.31887 -14.30194 -14.29563 -10.22234 -10.22167
 Alpha  occ. eigenvalues --  -10.19224 -10.18449 -10.17344 -10.16222  -0.91106
 Alpha  occ. eigenvalues --   -0.87502  -0.86530  -0.76234  -0.73794  -0.68235
 Alpha  occ. eigenvalues --   -0.62577  -0.57440  -0.53326  -0.51155  -0.47191
 Alpha  occ. eigenvalues --   -0.46519  -0.44856  -0.44090  -0.42701  -0.41290
 Alpha  occ. eigenvalues --   -0.39925  -0.38614  -0.37154  -0.36045  -0.33631
 Alpha  occ. eigenvalues --   -0.32614  -0.31932  -0.29369  -0.25455  -0.24137
 Alpha  occ. eigenvalues --   -0.22424
 Alpha virt. eigenvalues --    0.00955   0.07274   0.09275   0.10921   0.11587
 Alpha virt. eigenvalues --    0.12398   0.14166   0.14619   0.15912   0.16295
 Alpha virt. eigenvalues --    0.17401   0.18135   0.19150   0.19561   0.19920

 Mulliken charges:
               1
     1  C   -0.418559
     2  C   -0.022092
     3  N   -0.508344
     4  C    0.302359
     5  N   -0.464169
     6  C   -0.248896
     7  C   -0.150726
     8  C   -0.149612
     9  N   -0.509792
    10  H    0.110999
    11  H    0.116805
    12  H    0.125391
    13  H    0.090286
    14  H    0.226861
    15  H    0.228396
    16  H    0.211062
    17  H    0.131696
    18  H    0.103635
    19  H    0.118629
    20  H    0.097985
    21  H    0.071861
    22  H    0.095177
    23  H    0.220369
    24  H    0.220679
 Sum of Mulliken charges =   0.00000

 Dipole moment (field-independent basis, Debye):
    X=             -2.5398    Y=             -2.0631    Z=             -0.2703  Tot=              3.2833
 Quadrupole moment (field-independent basis, Debye-Ang):
   XX=            -47.2723   YY=            -61.5210   ZZ=            -54.2713
   XY=             -4.0607   XZ=             -1.9976   YZ=             -0.4176

  Exact polarizability: 106.168  -0.879  84.469  -0.444  -4.197  72.121
 Approx polarizability: 120.277   0.955 132.779   0.195 -10.359 113.778

                      1                      2                      3
                      A                      A                      A
 Frequencies --     36.7476                48.0292                86.4976
 Red. masses --      2.0696                 3.6901                 2.4115
 Frc consts  --      0.0016                 0.0050                 0.0106
 IR Inten    --      2.6491                 1.9691                 0.8822

                      4                      5                      6
                      A                      A                      A
 Frequencies --    105.5571               132.2677               236.1689
 Red. masses --      3.6857                 2.1908                 2.3806
 Frc consts  --      0.0242                 0.0226                 0.0782
 IR Inten    --      1.8714                 2.0648                 8.1003

                      7                      8                      9
                      A                      A                      A
 Frequencies --    248.4871               269.6129               274.3369
 Red. masses --      1.2621                 1.2085                 1.1488
 Frc consts  --      0.0459                 0.0518                 0.0509
 IR Inten    --     16.8330                29.4824                 8.8266

                     10                     11                     12
                      A                      A                      A
 Frequencies --    287.8201               327.8664               356.0074
 Red. masses --      3.3634                 2.2698                 3.1928
 Frc consts  --      0.1642                 0.1438                 0.2384
 IR Inten    --      0.4133                18.6694                 9.5835

                     13                     14                     15
                      A                      A                      A
 Frequencies --    422.0708               503.5432               554.6315
 Red. masses --      2.6498                 3.0329                 2.4556
 Frc consts  --      0.2781                 0.4531                 0.4451
 IR Inten    --     15.6146                 5.4175                 6.4916

                     16                     17                     18
                      A                      A                      A
 Frequencies --    613.4002               753.1828               796.8673
 Red. masses --      2.1348                 1.2042                 3.6286
 Frc consts  --      0.4732                 0.4025                 1.3576
 IR Inten    --      8.5758                 4.2579                 4.4699

                     19                     20                     21
                      A                      A                      A
 Frequencies --    838.8562               861.4223               883.9563
 Red. masses --      1.3726                 1.8186                 1.4543
 Frc consts  --      0.5691                 0.7951                 0.6695
 IR Inten    --     37.4411               144.4378                80.7001

                     22                     23                     24
                      A                      A                      A
 Frequencies --    917.5648               934.6230               983.4299
 Red. masses --      1.4847                 1.1831                 2.0050
 Frc consts  --      0.7365                 0.6089                 1.1425
 IR Inten    --     36.4971                14.9430                 7.6793

                     25                     26                     27
                      A                      A                      A
 Frequencies --    994.0851              1019.4608              1064.6426
 Red. masses --      2.2758                 1.4504                 2.2898
 Frc consts  --      1.3250                 0.8881                 1.5292
 IR Inten    --     12.8754                 1.5420                12.1654

                     28                     29                     30
                      A                      A                      A
 Frequencies --   1087.7848              1113.5095              1121.5998
 Red. masses --      2.4929                 2.5581                 1.6235
 Frc consts  --      1.7380                 1.8688                 1.2033
 IR Inten    --      8.2921                 2.2419                18.0267

                     31                     32                     33
                      A                      A                      A
 Frequencies --   1146.3661              1170.0645              1216.5710
 Red. masses --      1.4252                 1.4854                 1.7225
 Frc consts  --      1.1035                 1.1982                 1.5021
 IR Inten    --      6.0555                11.7780                 5.5818

                     34                     35                     36
                      A                      A                      A
 Frequencies --   1234.5770              1280.2280              1306.9697
 Red. masses --      1.3145                 1.3627                 1.1799
 Frc consts  --      1.1805                 1.3159                 1.1874
 IR Inten    --      7.7997                21.9143                 8.2721

                     37                     38                     39
                      A                      A                      A
 Frequencies --   1319.0796              1339.8173              1370.7998
 Red. masses --      1.1306                 1.3081                 1.3488
 Frc consts  --      1.1591                 1.3836                 1.4933
 IR Inten    --      5.6640                17.6800                11.8225

                     40                     41                     42
                      A                      A                      A
 Frequencies --   1394.2412              1402.3984              1419.8280
 Red. masses --      1.3632                 1.2511                 1.9516
 Frc consts  --      1.5613                 1.4498                 2.3180
 IR Inten    --      7.4891                 8.2579                28.3404

                     43                     44                     45
                      A                      A                      A
 Frequencies --   1432.8420              1467.6911              1489.5458
 Red. masses --      1.4828                 1.0930                 1.0861
 Frc consts  --      1.7937                 1.3872                 1.4198
 IR Inten    --     17.7282                 5.7582                 2.9231

                     46                     47                     48
                      A                      A                      A
 Frequencies --   1494.1064              1498.8145              1518.6834
 Red. masses --      1.0447                 1.0600                 1.0893
 Frc consts  --      1.3740                 1.4030                 1.4802
 IR Inten    --      4.6482                 3.9623                 2.0984

                     49                     50                     51
                      A                      A                      A
 Frequencies --   1656.0371              1657.9398              1726.9037
 Red. masses --      1.0977                 1.0888                 8.3491
 Frc consts  --      1.7736                 1.7633                14.6699
 IR Inten    --     23.2223                22.1238                47.9316

                     52                     53                     54
                      A                      A                      A
 Frequencies --   2926.1876              2994.4725              3013.0451
 Red. masses --      1.0728                 1.0710                 1.0814
 Frc consts  --      5.4124                 5.6582                 5.7845
 IR Inten    --     78.9752                 8.1839                21.6054

                     55                     56                     57
                      A                      A                      A
 Frequencies --   3024.3423              3024.6179              3041.9855
 Red. masses --      1.0630                 1.0549                 1.0688
 Frc consts  --      5.7285                 5.6858                 5.8273
 IR Inten    --     18.0850                10.3295                49.3258

                     58                     59                     60
                      A                      A                      A
 Frequencies --   3053.7735              3093.1981              3096.1760
 Red. masses --      1.0867                 1.1002                 1.0974
 Frc consts  --      5.9708                 6.2021                 6.1980
 IR Inten    --      2.9236                28.5121                28.2433

                     61                     62                     63
                      A                      A                      A
 Frequencies --   3102.2242              3446.4555              3476.0212
 Red. masses --      1.1015                 1.0732                 1.0489
 Frc consts  --      6.2457                 7.5106                 7.4674
 IR Inten    --     25.0929                 3.4230                 0.4279

                     64                     65                     66
                      A                      A                      A
 Frequencies --   3481.4927              3557.5802              3559.2121
 Red. masses --      1.0494                 1.0923                 1.0917
 Frc consts  --      7.4943                 8.1455                 8.1484
 IR Inten    --      1.6725                 0.2011                 0.3761

 - Thermochemistry -
 -------------------
 Temperature   298.150 Kelvin.  Pressure   1.00000 Atm.
 Atom     1 has atomic number  6 and mass  12.00000

 Molecular mass:   129.12660 amu.
 Principal axes and moments of inertia in atomic units:
                           1         2         3
     Eigenvalues --   451.380062937.754323208.71769
           X            0.99997  -0.00686  -0.00279
           Y            0.00684   0.99995  -0.00709
           Z            0.00283   0.00707   0.99997
 This molecule is an asymmetric top.
 Rotational symmetry number  1.
 Warning -- assumption of classical behavior for rotation
           may cause significant error
 Rotational temperatures (Kelvin)      0.19189     0.02948     0.02699
 Rotational constants (GHZ):           3.99827     0.61433     0.56245
 Zero-point vibrational energy     570070.3 (Joules/Mol)
                                  136.25008 (Kcal/Mol)
 Warning -- explicit consideration of  16 degrees of freedom as
           vibrations may cause significant error
 Vibrational temperatures:     52.87    69.10   124.45   151.87   190.30
          (Kelvin)            339.79   357.52   387.91   394.71   414.11
                              471.73   512.22   607.27   724.49   797.99
                              882.55  1083.66  1146.51  1206.93  1239.39
                             1271.82  1320.17  1344.71  1414.94  1430.27
                             1466.78  1531.78  1565.08  1602.09  1613.73
                             1649.37  1683.46  1750.37  1776.28  1841.96
                             1880.44  1897.86  1927.70  1972.28  2006.00
                             2017.74  2042.82  2061.54  2111.68  2143.12
                             2149.69  2156.46  2185.05  2382.67  2385.41
                             2484.63  4210.13  4308.38  4335.10  4351.35
                             4351.75  4376.74  4393.70  4450.42  4454.71
                             4463.41  4958.68  5001.22  5009.09  5118.56
                             5120.91

 Zero-point correction=                           0.217128 (Hartree/Particle)
 Thermal correction to Energy=                    0.228608
 Thermal correction to Enthalpy=                  0.229552
 Thermal correction to Gibbs Free Energy=         0.179213
 Sum of electronic and zero-point Energies=           -401.717876
 Sum of electronic and thermal Energies=              -401.706396
 Sum of electronic and thermal Enthalpies=            -401.705451
 Sum of electronic and thermal Free Energies=         -401.755791

                     E (Thermal)             CV                S
                      KCal/Mol        Cal/Mol-Kelvin    Cal/Mol-Kelvin
 Total                  143.454             41.120            105.948
 Electronic               0.000              0.000              0.000
 Translational            0.889              2.981             40.480
 Rotational               0.889              2.981             29.832
 Vibrational            141.676             35.159             35.636
 Vibration     1          0.594              1.982              5.427
 Vibration     2          0.595              1.978              4.897
 Vibration     3          0.601              1.959              3.738
 Vibration     4          0.605              1.945              3.349
 Vibration     5          0.612              1.921              2.913
 Vibration     6          0.655              1.785              1.832
 Vibration     7          0.662              1.765              1.741
 Vibration     8          0.674              1.729              1.599
 Vibration     9          0.677              1.721              1.569
 Vibration    10          0.685              1.696              1.487
 Vibration    11          0.711              1.620              1.271
 Vibration    12          0.732              1.563              1.139
 Vibration    13          0.784              1.422              0.885
 Vibration    14          0.859              1.242              0.649
 Vibration    15          0.910              1.130              0.535
 Vibration    16          0.973              1.004              0.427

 Optimization completed.
    -- Stationary point found.
 Normal termination of Gaussian 16 at Tue Jun  1 06:21:35 2021.
