 Gaussian 16, Revision A.03,
 Gaussian 16:  ES64L-G16RevA.03 25-Dec-2016

 -----------------------------
 # opt freq b3lyp/6-31g(2df,p)
 -----------------------------

 -------------------
 Title Card Required
 -------------------
 Symbolic Z-matrix:
 Charge =  0 Multiplicity = 1

 SCF Done:  E(RB3LYP) =  -324.468483634     A.U. after   12 cycles
 SCF Done:  E(RB3LYP) =  -324.476156412     A.U. after   11 cycles
 SCF Done:  E(RB3LYP) =  -324.479207894     A.U. after   10 cycles
 SCF Done:  E(RB3LYP) =  -324.480787179     A.U. after   11 cycles
 SCF Done:  E(RB3LYP) =  -324.481798583     A.U. after   10 cycles
 SCF Done:  E(RB3LYP) =  -324.482760911     A.U. after   11 cycles
 SCF Done:  E(RB3LYP) =  -324.483525092     A.U. after   11 cycles
 SCF Done:  E(RB3LYP) =  -324.484126479     A.U. after   10 cycles
 SCF Done:  E(RB3LYP) =  -324.484529674     A.U. after   10 cycles
 SCF Done:  E(RB3LYP) =  -324.484581977     A.U. after   10 cycles
 SCF Done:  E(RB3LYP) =  -324.484617630     A.U. after   10 cycles
 SCF Done:  E(RB3LYP) =  -324.484660460     A.U. after    9 cycles
 SCF Done:  E(RB3LYP) =  -324.484674160     A.U. after    9 cycles
 SCF Done:  E(RB3LYP) =  -324.484677865     A.U. after    8 cycles
 SCF Done:  E(RB3LYP) =  -324.484679233     A.U. after    7 cycles
 SCF Done:  E(RB3LYP) =  -324.484679385     A.U. after    6 cycles
 Optimization completed.
    -- Stationary point found.
 Normal termination of Gaussian 16 at Tue Jun  1 06:00:49 2021.

 ----------------------------------------------------------------------
 #N Geom=AllCheck Guess=TCheck SCRF=Check GenChk RB3LYP/6-31G(2df,p) Fr
 eq
 ----------------------------------------------------------------------

 Structure from the checkpoint file:  "CCpNpNNpCpC.chk"
 -------------------
 Title Card Required
 -------------------
 Charge =  0 Multiplicity = 1

                         Standard orientation:
 ---------------------------------------------------------------------
 Center     Atomic      Atomic             Coordinates (Angstroms)
 Number     Number       Type             X           Y           Z
 ---------------------------------------------------------------------
      1          6           0       -2.318982   -0.793814    0.534723
      2          6           0       -1.206750   -0.105865   -0.270427
      3          7           0       -1.508311    1.264917   -0.676459
      4          7           0       -0.003444   -0.070441    0.554231
      5          7           0        1.188852    0.103890   -0.198714
      6          6           0        2.117704    0.943715    0.538700
      7          6           0        1.778665   -1.162186   -0.600415
      8          1           0       -3.259165   -0.769164   -0.023231
      9          1           0       -2.471283   -0.276458    1.488678
     10          1           0       -2.082852   -1.843851    0.746392
     11          1           0       -1.043766   -0.673328   -1.202525
     12          1           0       -1.737484    1.808109    0.152714
     13          1           0       -2.327498    1.273841   -1.277807
     14          1           0        0.056246   -0.916543    1.124101
     15          1           0        1.623230    1.884549    0.785155
     16          1           0        2.990742    1.153958   -0.087922
     17          1           0        2.473809    0.479277    1.477932
     18          1           0        1.063999   -1.732880   -1.200919
     19          1           0        2.084716   -1.787096    0.263337
     20          1           0        2.665807   -0.980069   -1.214804
 ---------------------------------------------------------------------

 SCF Done:  E(RB3LYP) =  -324.484679385     A.U. after    1 cycles

 The electronic state is 1-A.
 Alpha  occ. eigenvalues --  -14.33439 -14.32894 -14.29570 -10.22834 -10.19709
 Alpha  occ. eigenvalues --  -10.18750 -10.17417  -0.97164  -0.87735  -0.79528
 Alpha  occ. eigenvalues --   -0.71294  -0.69835  -0.61109  -0.58489  -0.50434
 Alpha  occ. eigenvalues --   -0.49061  -0.45498  -0.43971  -0.42206  -0.41295
 Alpha  occ. eigenvalues --   -0.40143  -0.38841  -0.38311  -0.35882  -0.35637
 Alpha  occ. eigenvalues --   -0.34945  -0.23278  -0.22756  -0.21109
 Alpha virt. eigenvalues --    0.07448   0.10089   0.12408   0.13205   0.14083
 Alpha virt. eigenvalues --    0.14608   0.15828   0.16205   0.17350   0.17593
 Alpha virt. eigenvalues --    0.18813   0.19322   0.20107   0.21324   0.23984

 Mulliken charges:
               1
     1  C   -0.412054
     2  C    0.111809
     3  N   -0.476288
     4  N   -0.283374
     5  N   -0.017864
     6  C   -0.287200
     7  C   -0.310849
     8  H    0.111768
     9  H    0.118968
    10  H    0.107184
    11  H    0.064603
    12  H    0.216849
    13  H    0.215884
    14  H    0.196853
    15  H    0.127727
    16  H    0.110200
    17  H    0.080950
    18  H    0.119092
    19  H    0.083383
    20  H    0.122358
 Sum of Mulliken charges =  -0.00000

 Dipole moment (field-independent basis, Debye):
    X=             -0.7479    Y=             -1.3692    Z=              0.5143  Tot=              1.6427
 Quadrupole moment (field-independent basis, Debye-Ang):
   XX=            -39.8918   YY=            -45.0341   ZZ=            -46.2604
   XY=             -1.4767   XZ=              0.6867   YZ=              1.4100

  Exact polarizability:  80.936  -0.140  67.226   0.692  -0.024  61.392
 Approx polarizability:  98.217  -0.845  93.919   1.213  -0.974  91.971

                      1                      2                      3
                      A                      A                      A
 Frequencies --     63.3152                97.9164               181.9898
 Red. masses --      2.8571                 3.0441                 2.1362
 Frc consts  --      0.0067                 0.0172                 0.0417
 IR Inten    --      0.0625                 1.9320                 6.3939

                      4                      5                      6
                      A                      A                      A
 Frequencies --    236.5733               246.7171               248.3591
 Red. masses --      1.0267                 1.0788                 1.1995
 Frc consts  --      0.0339                 0.0387                 0.0436
 IR Inten    --     18.1650                13.3499                 3.5930

                      7                      8                      9
                      A                      A                      A
 Frequencies --    265.4349               326.6567               372.1583
 Red. masses --      1.1405                 2.1876                 2.7847
 Frc consts  --      0.0473                 0.1375                 0.2272
 IR Inten    --      1.4796                 1.0361                 0.8489

                     10                     11                     12
                      A                      A                      A
 Frequencies --    423.3663               456.6725               512.2122
 Red. masses --      2.1462                 2.4810                 2.7902
 Frc consts  --      0.2266                 0.3049                 0.4313
 IR Inten    --      3.4568                 4.5622                 7.8676

                     13                     14                     15
                      A                      A                      A
 Frequencies --    540.1722               750.9645               844.6204
 Red. masses --      2.1843                 2.2147                 2.1251
 Frc consts  --      0.3755                 0.7359                 0.8932
 IR Inten    --      0.7510                34.0507                93.3144

                     16                     17                     18
                      A                      A                      A
 Frequencies --    888.2816               911.7624               961.5109
 Red. masses --      2.1379                 1.4681                 1.6710
 Frc consts  --      0.9939                 0.7191                 0.9102
 IR Inten    --     69.5372                46.9350                10.2387

                     19                     20                     21
                      A                      A                      A
 Frequencies --   1027.7871              1036.9497              1073.3216
 Red. masses --      1.8240                 1.6385                 2.2224
 Frc consts  --      1.1352                 1.0380                 1.5085
 IR Inten    --      5.6735                14.3207                13.1065

                     22                     23                     24
                      A                      A                      A
 Frequencies --   1114.5386              1118.9426              1173.4132
 Red. masses --      1.8156                 1.4360                 1.6521
 Frc consts  --      1.3288                 1.0593                 1.3403
 IR Inten    --     21.4219                 1.6326                26.4640

                     25                     26                     27
                      A                      A                      A
 Frequencies --   1216.6022              1244.4722              1264.0801
 Red. masses --      1.7962                 2.0095                 2.2682
 Frc consts  --      1.5664                 1.8336                 2.1354
 IR Inten    --      4.0445                17.1512                 1.9532

                     28                     29                     30
                      A                      A                      A
 Frequencies --   1288.9710              1342.7351              1398.4898
 Red. masses --      2.5617                 1.2875                 1.2665
 Frc consts  --      2.5077                 1.3677                 1.4594
 IR Inten    --      0.1976                19.5013                 9.3062

                     31                     32                     33
                      A                      A                      A
 Frequencies --   1424.6367              1435.0714              1457.3714
 Red. masses --      1.2769                 1.1780                 1.1772
 Frc consts  --      1.5269                 1.4294                 1.4731
 IR Inten    --     20.4444                 3.3446                 0.6755

                     34                     35                     36
                      A                      A                      A
 Frequencies --   1477.8021              1481.7493              1489.3436
 Red. masses --      1.0523                 1.0667                 1.0532
 Frc consts  --      1.3541                 1.3799                 1.3764
 IR Inten    --      6.0935                 5.5051                 2.7569

                     37                     38                     39
                      A                      A                      A
 Frequencies --   1491.7609              1498.8629              1505.4648
 Red. masses --      1.0493                 1.0740                 1.0519
 Frc consts  --      1.3758                 1.4216                 1.4047
 IR Inten    --      4.6351                 3.2165                 0.8454

                     40                     41                     42
                      A                      A                      A
 Frequencies --   1528.6747              1638.9239              2901.5158
 Red. masses --      1.1855                 1.1066                 1.0613
 Frc consts  --      1.6322                 1.7513                 5.2645
 IR Inten    --     18.6208                29.5318                68.3005

                     43                     44                     45
                      A                      A                      A
 Frequencies --   2928.8251              2952.8165              3021.6583
 Red. masses --      1.0605                 1.0821                 1.0370
 Frc consts  --      5.3598                 5.5589                 5.5784
 IR Inten    --    111.6836                48.3697                21.1104

                     46                     47                     48
                      A                      A                      A
 Frequencies --   3062.1026              3068.2917              3089.3101
 Red. masses --      1.0698                 1.0728                 1.0997
 Frc consts  --      5.9101                 5.9504                 6.1840
 IR Inten    --     20.6551                45.6034                33.7165

                     49                     50                     51
                      A                      A                      A
 Frequencies --   3107.2143              3112.1674              3133.7374
 Red. masses --      1.1030                 1.1009                 1.0996
 Frc consts  --      6.2743                 6.2823                 6.3623
 IR Inten    --     29.0759                25.6470                19.8953

                     52                     53                     54
                      A                      A                      A
 Frequencies --   3400.7168              3473.5486              3563.2284
 Red. masses --      1.0734                 1.0487                 1.0921
 Frc consts  --      7.3138                 7.4549                 8.1696
 IR Inten    --     14.2440                 1.2922                 0.1971

 - Thermochemistry -
 -------------------
 Temperature   298.150 Kelvin.  Pressure   1.00000 Atm.
 Atom     1 has atomic number  6 and mass  12.00000

 Molecular mass:   103.11095 amu.
 Principal axes and moments of inertia in atomic units:
                           1         2         3
     Eigenvalues --   415.177061153.993111309.53714
           X            0.99998   0.00531  -0.00156
           Y           -0.00526   0.99938   0.03471
           Z            0.00174  -0.03470   0.99940
 This molecule is an asymmetric top.
 Rotational symmetry number  1.
 Rotational temperatures (Kelvin)      0.20862     0.07506     0.06614
 Rotational constants (GHZ):           4.34692     1.56391     1.37815
 Zero-point vibrational energy     477751.3 (Joules/Mol)
                                  114.18530 (Kcal/Mol)
 Warning -- explicit consideration of  13 degrees of freedom as
           vibrations may cause significant error
 Vibrational temperatures:     91.10   140.88   261.84   340.38   354.97
          (Kelvin)            357.33   381.90   469.99   535.45   609.13
                              657.05   736.96   777.19  1080.47  1215.22
                             1278.04  1311.82  1383.40  1478.76  1491.94
                             1544.27  1603.57  1609.91  1688.28  1750.42
                             1790.52  1818.73  1854.54  1931.90  2012.11
                             2049.73  2064.75  2096.83  2126.23  2131.91
                             2142.83  2146.31  2156.53  2166.03  2199.42
                             2358.05  4174.63  4213.93  4248.44  4347.49
                             4405.68  4414.59  4444.83  4470.59  4477.71
                             4508.75  4892.87  4997.66  5126.69

 Zero-point correction=                           0.181966 (Hartree/Particle)
 Thermal correction to Energy=                    0.191164
 Thermal correction to Enthalpy=                  0.192108
 Thermal correction to Gibbs Free Energy=         0.148604
 Sum of electronic and zero-point Energies=           -324.302714
 Sum of electronic and thermal Energies=              -324.293516
 Sum of electronic and thermal Enthalpies=            -324.292571
 Sum of electronic and thermal Free Energies=         -324.336076

                     E (Thermal)             CV                S
                      KCal/Mol        Cal/Mol-Kelvin    Cal/Mol-Kelvin
 Total                  119.957             33.370             91.562
 Electronic               0.000              0.000              0.000
 Translational            0.889              2.981             39.809
 Rotational               0.889              2.981             27.930
 Vibrational            118.180             27.409             23.822
 Vibration     1          0.597              1.972              4.351
 Vibration     2          0.603              1.951              3.495
 Vibration     3          0.630              1.864              2.308
 Vibration     4          0.655              1.785              1.829
 Vibration     5          0.661              1.768              1.754
 Vibration     6          0.662              1.765              1.742
 Vibration     7          0.671              1.736              1.626
 Vibration     8          0.710              1.622              1.277
 Vibration     9          0.744              1.529              1.071
 Vibration    10          0.786              1.419              0.881
 Vibration    11          0.815              1.346              0.776
 Vibration    12          0.867              1.223              0.628
 Vibration    13          0.895              1.161              0.565

 Optimization completed.
    -- Stationary point found.
 Normal termination of Gaussian 16 at Tue Jun  1 06:23:27 2021.
