 Gaussian 16, Revision A.03,
 Gaussian 16:  ES64L-G16RevA.03 25-Dec-2016

 -----------------------------
 # opt freq b3lyp/6-31g(2df,p)
 -----------------------------

 -------------------
 Title Card Required
 -------------------
 Symbolic Z-matrix:
 Charge =  0 Multiplicity = 1

 SCF Done:  E(RB3LYP) =  -416.707520388     A.U. after   13 cycles
 SCF Done:  E(RB3LYP) =  -416.713114387     A.U. after   12 cycles
 SCF Done:  E(RB3LYP) =  -416.713911695     A.U. after   12 cycles
 SCF Done:  E(RB3LYP) =  -416.714308232     A.U. after   11 cycles
 SCF Done:  E(RB3LYP) =  -416.714562398     A.U. after   11 cycles
 SCF Done:  E(RB3LYP) =  -416.714692370     A.U. after   11 cycles
 SCF Done:  E(RB3LYP) =  -416.714784753     A.U. after   10 cycles
 SCF Done:  E(RB3LYP) =  -416.714865728     A.U. after   11 cycles
 SCF Done:  E(RB3LYP) =  -416.714894766     A.U. after   10 cycles
 SCF Done:  E(RB3LYP) =  -416.714912992     A.U. after   10 cycles
 SCF Done:  E(RB3LYP) =  -416.714960396     A.U. after   11 cycles
 SCF Done:  E(RB3LYP) =  -416.714974110     A.U. after   10 cycles
 SCF Done:  E(RB3LYP) =  -416.714975236     A.U. after    9 cycles
 SCF Done:  E(RB3LYP) =  -416.714975440     A.U. after    8 cycles
 SCF Done:  E(RB3LYP) =  -416.714975482     A.U. after    7 cycles
 SCF Done:  E(RB3LYP) =  -416.714975503     A.U. after    7 cycles
 Optimization completed.
    -- Stationary point found.
 Normal termination of Gaussian 16 at Tue Jun  1 08:54:57 2021.

 ----------------------------------------------------------------------
 #N Geom=AllCheck Guess=TCheck SCRF=Check GenChk RB3LYP/6-31G(2df,p) Fr
 eq
 ----------------------------------------------------------------------

 Structure from the checkpoint file:  "CCpNCCtNpNpCpN.chk"
 -------------------
 Title Card Required
 -------------------
 Charge =  0 Multiplicity = 1

                         Standard orientation:
 ---------------------------------------------------------------------
 Center     Atomic      Atomic             Coordinates (Angstroms)
 Number     Number       Type             X           Y           Z
 ---------------------------------------------------------------------
      1          6           0        0.931632    1.900444   -0.154993
      2          6           0        0.651845    0.442731    0.215520
      3          7           0       -0.657580    0.053864   -0.326135
      4          6           0       -1.774696    0.427785    0.533247
      5          6           0       -3.033433   -0.111971    0.013799
      6          7           0       -4.023521   -0.557918   -0.379543
      7          7           0        1.659794   -0.472720   -0.322660
      8          6           0        3.037557   -0.051611   -0.083832
      9          7           0        1.517309   -1.805685    0.165016
     10          1           0        0.073418    2.522707    0.112485
     11          1           0        1.087862    1.984973   -1.233403
     12          1           0        1.798972    2.298546    0.375559
     13          1           0        0.644266    0.357754    1.332142
     14          1           0       -0.673117   -0.950153   -0.459898
     15          1           0       -1.865413    1.519890    0.569739
     16          1           0       -1.668674    0.092433    1.582609
     17          1           0        3.254170    0.869993   -0.626713
     18          1           0        3.693015   -0.838866   -0.455884
     19          1           0        3.265059    0.107572    0.986090
     20          1           0        0.858703   -2.314315   -0.413980
     21          1           0        1.182287   -1.817600    1.132067
 ---------------------------------------------------------------------

 SCF Done:  E(RB3LYP) =  -416.714975503     A.U. after    1 cycles

 The electronic state is 1-A.
 Alpha  occ. eigenvalues --  -14.35860 -14.34948 -14.33823 -14.33305 -10.26378
 Alpha  occ. eigenvalues --  -10.25451 -10.22468 -10.20472 -10.18752  -0.99162
 Alpha  occ. eigenvalues --   -0.92936  -0.89916  -0.81395  -0.75854  -0.71979
 Alpha  occ. eigenvalues --   -0.66674  -0.59400  -0.55360  -0.52092  -0.49764
 Alpha  occ. eigenvalues --   -0.49094  -0.48181  -0.45653  -0.43151  -0.41252
 Alpha  occ. eigenvalues --   -0.39972  -0.39120  -0.37897  -0.37385  -0.35893
 Alpha  occ. eigenvalues --   -0.33469  -0.32930  -0.26599  -0.25170  -0.23624
 Alpha virt. eigenvalues --    0.02022   0.03488   0.05910   0.07673   0.09875
 Alpha virt. eigenvalues --    0.10458   0.13292   0.13785   0.14555   0.15980
 Alpha virt. eigenvalues --    0.16314   0.16807   0.17764   0.18297   0.18809

 Mulliken charges:
               1
     1  C   -0.404816
     2  C    0.138362
     3  N   -0.301579
     4  C   -0.267964
     5  C    0.254712
     6  N   -0.296861
     7  N   -0.090677
     8  C   -0.294622
     9  N   -0.472449
    10  H    0.118293
    11  H    0.142226
    12  H    0.123265
    13  H    0.030524
    14  H    0.214136
    15  H    0.158373
    16  H    0.129198
    17  H    0.125016
    18  H    0.136910
    19  H    0.091422
    20  H    0.249304
    21  H    0.217226
 Sum of Mulliken charges =  -0.00000

 Dipole moment (field-independent basis, Debye):
    X=              2.9551    Y=              1.1707    Z=              2.4361  Tot=              4.0047
 Quadrupole moment (field-independent basis, Debye-Ang):
   XX=            -74.3585   YY=            -52.7584   ZZ=            -55.7813
   XY=             -1.2243   XZ=             -4.0411   YZ=             -0.0948

  Exact polarizability: 102.968   5.792  77.327   2.299   1.235  65.059
 Approx polarizability: 132.533  11.502 111.170   7.207   4.904 105.025

                      1                      2                      3
                      A                      A                      A
 Frequencies --     27.8761                63.7193                79.9355
 Red. masses --      2.9366                 3.9121                 2.6194
 Frc consts  --      0.0013                 0.0094                 0.0099
 IR Inten    --      4.5414                 1.5852                 2.0424

                      4                      5                      6
                      A                      A                      A
 Frequencies --    128.2369               226.0788               244.4317
 Red. masses --      5.0733                 1.0938                 1.8277
 Frc consts  --      0.0492                 0.0329                 0.0643
 IR Inten    --      3.8539                 0.2042                 3.8538

                      7                      8                      9
                      A                      A                      A
 Frequencies --    264.0973               297.3900               346.5982
 Red. masses --      2.4020                 1.7008                 1.8205
 Frc consts  --      0.0987                 0.0886                 0.1289
 IR Inten    --      2.7947                10.7311                15.0800

                     10                     11                     12
                      A                      A                      A
 Frequencies --    363.2559               390.3857               403.1089
 Red. masses --      1.8474                 3.6703                 2.8001
 Frc consts  --      0.1436                 0.3296                 0.2681
 IR Inten    --      2.1725                 2.4483                 0.8260

                     13                     14                     15
                      A                      A                      A
 Frequencies --    432.7062               504.0381               533.1439
 Red. masses --      2.7751                 2.7090                 2.9063
 Frc consts  --      0.3061                 0.4055                 0.4867
 IR Inten    --     13.7782                 3.0192                11.0514

                     16                     17                     18
                      A                      A                      A
 Frequencies --    605.1288               732.1047               796.3021
 Red. masses --      4.1932                 1.3507                 2.6459
 Frc consts  --      0.9047                 0.4265                 0.9885
 IR Inten    --      1.5724                83.1424                32.7551

                     19                     20                     21
                      A                      A                      A
 Frequencies --    873.6707               913.1937               949.5304
 Red. masses --      1.6506                 2.5216                 3.0358
 Frc consts  --      0.7423                 1.2389                 1.6127
 IR Inten    --     99.7829                 1.0489                 2.3087

                     22                     23                     24
                      A                      A                      A
 Frequencies --    993.0496              1013.0495              1094.1071
 Red. masses --      1.8716                 1.8885                 2.1086
 Frc consts  --      1.0875                 1.1419                 1.4872
 IR Inten    --     38.8962                13.1777                11.0815

                     25                     26                     27
                      A                      A                      A
 Frequencies --   1104.2148              1129.5950              1147.1228
 Red. masses --      1.9055                 2.2828                 1.7582
 Frc consts  --      1.3689                 1.7162                 1.3632
 IR Inten    --      9.4291                 0.3646                32.9568

                     28                     29                     30
                      A                      A                      A
 Frequencies --   1161.4024              1234.8670              1240.6979
 Red. masses --      2.1382                 1.7042                 2.1027
 Frc consts  --      1.6993                 1.5311                 1.9070
 IR Inten    --     29.6215                10.9434                 2.5993

                     31                     32                     33
                      A                      A                      A
 Frequencies --   1251.2006              1301.7097              1348.6538
 Red. masses --      1.7263                 1.2518                 1.2537
 Frc consts  --      1.5923                 1.2497                 1.3436
 IR Inten    --     27.2405                19.7920                34.3417

                     34                     35                     36
                      A                      A                      A
 Frequencies --   1376.8645              1395.1900              1410.3999
 Red. masses --      1.3605                 1.3654                 1.2928
 Frc consts  --      1.5196                 1.5659                 1.5152
 IR Inten    --     20.5854                19.1690                21.9076

                     37                     38                     39
                      A                      A                      A
 Frequencies --   1448.8544              1483.4964              1485.8739
 Red. masses --      1.1599                 1.1073                 1.0546
 Frc consts  --      1.4346                 1.4358                 1.3718
 IR Inten    --      0.4380                17.0033                15.2609

                     40                     41                     42
                      A                      A                      A
 Frequencies --   1495.5946              1501.4902              1504.2359
 Red. masses --      1.0667                 1.0929                 1.0784
 Frc consts  --      1.4057                 1.4517                 1.4376
 IR Inten    --      4.5773                 9.2885                 2.4953

                     43                     44                     45
                      A                      A                      A
 Frequencies --   1511.8507              1659.0443              2369.3490
 Red. masses --      1.1119                 1.0867                12.6222
 Frc consts  --      1.4974                 1.7623                41.7488
 IR Inten    --     25.0077                15.3982                 4.6469

                     46                     47                     48
                      A                      A                      A
 Frequencies --   2764.6819              2924.7453              2943.2172
 Red. masses --      1.0772                 1.0726                 1.0607
 Frc consts  --      4.8510                 5.4060                 5.4134
 IR Inten    --     94.6149                43.1495                73.6429

                     49                     50                     51
                      A                      A                      A
 Frequencies --   3050.6245              3055.3706              3101.9068
 Red. masses --      1.0626                 1.0549                 1.0726
 Frc consts  --      5.8265                 5.8022                 6.0808
 IR Inten    --      0.8159                18.2863                21.4133

                     52                     53                     54
                      A                      A                      A
 Frequencies --   3121.3584              3139.0246              3152.7939
 Red. masses --      1.0993                 1.1031                 1.1028
 Frc consts  --      6.3102                 6.4040                 6.4585
 IR Inten    --     35.5422                13.7775                12.1339

                     55                     56                     57
                      A                      A                      A
 Frequencies --   3385.5257              3549.4286              3556.0763
 Red. masses --      1.0547                 1.0748                 1.0845
 Frc consts  --      7.1227                 7.9779                 8.0806
 IR Inten    --     12.9202                 4.0085                 3.9054

 - Thermochemistry -
 -------------------
 Temperature   298.150 Kelvin.  Pressure   1.00000 Atm.
 Atom     1 has atomic number  6 and mass  12.00000

 Molecular mass:   128.10620 amu.
 Principal axes and moments of inertia in atomic units:
                           1         2         3
     Eigenvalues --   534.391232303.856882701.08586
           X            0.99999   0.00130  -0.00402
           Y           -0.00132   0.99999  -0.00400
           Z            0.00402   0.00400   0.99998
 This molecule is an asymmetric top.
 Rotational symmetry number  1.
 Warning -- assumption of classical behavior for rotation
           may cause significant error
 Rotational temperatures (Kelvin)      0.16208     0.03760     0.03207
 Rotational constants (GHZ):           3.37719     0.78336     0.66815
 Zero-point vibrational energy     476003.7 (Joules/Mol)
                                  113.76761 (Kcal/Mol)
 Warning -- explicit consideration of  16 degrees of freedom as
           vibrations may cause significant error
 Vibrational temperatures:     40.11    91.68   115.01   184.50   325.28
          (Kelvin)            351.68   379.98   427.88   498.68   522.64
                              561.68   579.98   622.57   725.20   767.08
                              870.65  1053.34  1145.70  1257.02  1313.88
                             1366.16  1428.78  1457.55  1574.18  1588.72
                             1625.24  1650.45  1671.00  1776.70  1785.09
                             1800.20  1872.87  1940.41  1981.00  2007.37
                             2029.25  2084.58  2134.42  2137.84  2151.83
                             2160.31  2164.26  2175.22  2386.99  3408.96
                             3977.76  4208.06  4234.63  4389.17  4396.00
                             4462.95  4490.94  4516.36  4536.17  4871.02
                             5106.84  5116.40

 Zero-point correction=                           0.181300 (Hartree/Particle)
 Thermal correction to Energy=                    0.192023
 Thermal correction to Enthalpy=                  0.192967
 Thermal correction to Gibbs Free Energy=         0.144325
 Sum of electronic and zero-point Energies=           -416.533675
 Sum of electronic and thermal Energies=              -416.522953
 Sum of electronic and thermal Enthalpies=            -416.522008
 Sum of electronic and thermal Free Energies=         -416.570651

                     E (Thermal)             CV                S
                      KCal/Mol        Cal/Mol-Kelvin    Cal/Mol-Kelvin
 Total                  120.496             38.362            102.377
 Electronic               0.000              0.000              0.000
 Translational            0.889              2.981             40.456
 Rotational               0.889              2.981             29.587
 Vibrational            118.719             32.401             32.333
 Vibration     1          0.593              1.984              5.975
 Vibration     2          0.597              1.972              4.339
 Vibration     3          0.600              1.963              3.892
 Vibration     4          0.611              1.925              2.972
 Vibration     5          0.650              1.801              1.910
 Vibration     6          0.660              1.772              1.770
 Vibration     7          0.671              1.739              1.635
 Vibration     8          0.691              1.679              1.432
 Vibration     9          0.725              1.582              1.182
 Vibration    10          0.737              1.548              1.108
 Vibration    11          0.758              1.491              0.999
 Vibration    12          0.769              1.463              0.951
 Vibration    13          0.794              1.399              0.850
 Vibration    14          0.859              1.241              0.648
 Vibration    15          0.888              1.177              0.580
 Vibration    16          0.964              1.021              0.441

 Optimization completed.
    -- Stationary point found.
 Normal termination of Gaussian 16 at Tue Jun  1 09:35:04 2021.
