 Gaussian 16, Revision A.03,
 Gaussian 16:  ES64L-G16RevA.03 25-Dec-2016

 -----------------------------
 # opt freq b3lyp/6-31g(2df,p)
 -----------------------------

 -------------------
 Title Card Required
 -------------------
 Symbolic Z-matrix:
 Charge =  0 Multiplicity = 1

 SCF Done:  E(RB3LYP) =  -415.478674944     A.U. after   15 cycles
 SCF Done:  E(RB3LYP) =  -415.505152832     A.U. after   13 cycles
 SCF Done:  E(RB3LYP) =  -415.505968365     A.U. after   12 cycles
 SCF Done:  E(RB3LYP) =  -415.507131656     A.U. after   13 cycles
 SCF Done:  E(RB3LYP) =  -415.507334582     A.U. after   13 cycles
 SCF Done:  E(RB3LYP) =  -415.509090574     A.U. after   13 cycles
 SCF Done:  E(RB3LYP) =  -415.510982829     A.U. after   13 cycles
 SCF Done:  E(RB3LYP) =  -415.512234403     A.U. after   13 cycles
 SCF Done:  E(RB3LYP) =  -415.512902573     A.U. after   13 cycles
 SCF Done:  E(RB3LYP) =  -415.513092392     A.U. after   11 cycles
 SCF Done:  E(RB3LYP) =  -415.513183172     A.U. after   10 cycles
 SCF Done:  E(RB3LYP) =  -415.513211246     A.U. after   10 cycles
 SCF Done:  E(RB3LYP) =  -415.513223392     A.U. after    9 cycles
 SCF Done:  E(RB3LYP) =  -415.513226313     A.U. after    9 cycles
 SCF Done:  E(RB3LYP) =  -415.513227310     A.U. after    9 cycles
 Optimization completed.
    -- Stationary point found.
 Normal termination of Gaussian 16 at Mon May 31 19:32:20 2021.

 ----------------------------------------------------------------------
 #N Geom=AllCheck Guess=TCheck SCRF=Check GenChk RB3LYP/6-31G(2df,p) Fr
 eq
 ----------------------------------------------------------------------

 Structure from the checkpoint file:  "CCpNpCdNNCCtN.chk"
 -------------------
 Title Card Required
 -------------------
 Charge =  0 Multiplicity = 1

                         Standard orientation:
 ---------------------------------------------------------------------
 Center     Atomic      Atomic             Coordinates (Angstroms)
 Number     Number       Type             X           Y           Z
 ---------------------------------------------------------------------
      1          6           0        3.140469   -1.266538   -0.027873
      2          6           0        2.416614    0.057886    0.281379
      3          7           0        3.132224    1.260807   -0.178769
      4          6           0        1.038235    0.065664   -0.323928
      5          7           0       -0.001190   -0.088800    0.392342
      6          7           0       -1.221709   -0.168904   -0.238795
      7          6           0       -2.301385    0.284521    0.628861
      8          6           0       -3.602817    0.007285    0.015887
      9          7           0       -4.631433   -0.185676   -0.472130
     10          1           0        4.145344   -1.262725    0.408236
     11          1           0        3.244078   -1.410423   -1.110208
     12          1           0        2.593155   -2.123905    0.376654
     13          1           0        2.286998    0.147645    1.364620
     14          1           0        3.352148    1.165646   -1.168416
     15          1           0        4.030604    1.314798    0.293981
     16          1           0        0.975097    0.187310   -1.416209
     17          1           0       -1.247441    0.271060   -1.158954
     18          1           0       -2.252776    1.357873    0.872636
     19          1           0       -2.219144   -0.262175    1.573168
 ---------------------------------------------------------------------

 SCF Done:  E(RB3LYP) =  -415.513227310     A.U. after    1 cycles

 The electronic state is 1-A.
 Alpha  occ. eigenvalues --  -14.37885 -14.36723 -14.33495 -14.31845 -10.26510
 Alpha  occ. eigenvalues --  -10.22590 -10.22486 -10.22213 -10.18437  -1.01313
 Alpha  occ. eigenvalues --   -0.90904  -0.89680  -0.84996  -0.75169  -0.71932
 Alpha  occ. eigenvalues --   -0.64551  -0.59565  -0.55061  -0.51219  -0.50402
 Alpha  occ. eigenvalues --   -0.47910  -0.45500  -0.44842  -0.42155  -0.41870
 Alpha  occ. eigenvalues --   -0.37949  -0.37566  -0.36134  -0.35421  -0.33714
 Alpha  occ. eigenvalues --   -0.32918  -0.28707  -0.24764  -0.23652
 Alpha virt. eigenvalues --   -0.00511   0.01913   0.03867   0.07179   0.08501
 Alpha virt. eigenvalues --    0.10084   0.11914   0.13611   0.15258   0.15450
 Alpha virt. eigenvalues --    0.16732   0.17194   0.17741   0.18333   0.19657

 Mulliken charges:
               1
     1  C   -0.392803
     2  C   -0.017858
     3  N   -0.517445
     4  C    0.057103
     5  N   -0.127817
     6  N   -0.253784
     7  C   -0.229967
     8  C    0.248714
     9  N   -0.295288
    10  H    0.111619
    11  H    0.109456
    12  H    0.128490
    13  H    0.101301
    14  H    0.220767
    15  H    0.229419
    16  H    0.073983
    17  H    0.232627
    18  H    0.146714
    19  H    0.174771
 Sum of Mulliken charges =  -0.00000

 Dipole moment (field-independent basis, Debye):
    X=              4.4934    Y=              0.6125    Z=             -0.0428  Tot=              4.5351
 Quadrupole moment (field-independent basis, Debye-Ang):
   XX=            -66.5785   YY=            -57.0837   ZZ=            -50.4652
   XY=             -4.7270   XZ=             -6.4801   YZ=             -1.1642

  Exact polarizability: 126.312   2.034  60.313   1.490  -0.569  67.733
 Approx polarizability: 159.900   8.616  87.496   4.251  -0.948 108.646

                      1                      2                      3
                      A                      A                      A
 Frequencies --     40.9296                49.4881                87.3427
 Red. masses --      5.3265                 2.7276                 5.1314
 Frc consts  --      0.0053                 0.0039                 0.0231
 IR Inten    --      2.6183                 5.1350                 2.9347

                      4                      5                      6
                      A                      A                      A
 Frequencies --    141.9671               191.1345               203.1032
 Red. masses --      3.2496                 2.0828                 2.9212
 Frc consts  --      0.0386                 0.0448                 0.0710
 IR Inten    --      3.3072                 8.7879                42.2586

                      7                      8                      9
                      A                      A                      A
 Frequencies --    218.0577               252.3718               309.1342
 Red. masses --      1.5162                 1.1707                 2.8403
 Frc consts  --      0.0425                 0.0439                 0.1599
 IR Inten    --     25.4157                 0.2963                15.2322

                     10                     11                     12
                      A                      A                      A
 Frequencies --    385.3171               392.9126               448.1469
 Red. masses --      3.4576                 3.4803                 3.5333
 Frc consts  --      0.3025                 0.3166                 0.4181
 IR Inten    --      0.3382                 8.0667                 3.4260

                     13                     14                     15
                      A                      A                      A
 Frequencies --    473.0164               534.1737               598.0094
 Red. masses --      3.7033                 2.8452                 5.4616
 Frc consts  --      0.4882                 0.4783                 1.1508
 IR Inten    --      6.3548                22.4771                 0.9730

                     16                     17                     18
                      A                      A                      A
 Frequencies --    724.8089               858.3655               899.3471
 Red. masses --      1.5330                 2.3562                 1.3490
 Frc consts  --      0.4745                 1.0229                 0.6429
 IR Inten    --    107.2774                52.7601                83.6069

                     19                     20                     21
                      A                      A                      A
 Frequencies --    927.2468               956.1009               971.3923
 Red. masses --      1.7222                 2.5873                 1.6755
 Frc consts  --      0.8724                 1.3935                 0.9315
 IR Inten    --      2.4719                 9.1652                 6.2766

                     22                     23                     24
                      A                      A                      A
 Frequencies --    982.4927              1041.7352              1075.9052
 Red. masses --      1.9268                 1.5954                 2.9005
 Frc consts  --      1.0958                 1.0201                 1.9782
 IR Inten    --     27.8363                 1.6072                36.8460

                     25                     26                     27
                      A                      A                      A
 Frequencies --   1117.3466              1140.0042              1185.7727
 Red. masses --      2.1566                 3.8718                 1.9598
 Frc consts  --      1.5863                 2.9647                 1.6235
 IR Inten    --     21.9718               139.3821                 3.3931

                     28                     29                     30
                      A                      A                      A
 Frequencies --   1227.5670              1258.8629              1331.9739
 Red. masses --      1.3233                 1.4617                 1.3291
 Frc consts  --      1.1749                 1.3648                 1.3893
 IR Inten    --      0.7808                 1.5743                15.8202

                     31                     32                     33
                      A                      A                      A
 Frequencies --   1351.9576              1379.0514              1398.6328
 Red. masses --      1.3022                 1.3048                 1.2451
 Frc consts  --      1.4023                 1.4620                 1.4350
 IR Inten    --     33.8632                 7.4551                 3.2931

                     34                     35                     36
                      A                      A                      A
 Frequencies --   1412.0675              1486.8129              1488.9175
 Red. masses --      1.4045                 1.0805                 1.0508
 Frc consts  --      1.6500                 1.4073                 1.3725
 IR Inten    --     11.3536                 5.7255                 3.9723

                     37                     38                     39
                      A                      A                      A
 Frequencies --   1496.0834              1510.1029              1656.9121
 Red. masses --      1.0684                 1.2976                 1.0926
 Frc consts  --      1.4090                 1.7434                 1.7673
 IR Inten    --      2.8145                16.2945                18.9233

                     40                     41                     42
                      A                      A                      A
 Frequencies --   1727.6287              2371.4706              2981.2696
 Red. masses --      8.3394                12.6189                 1.0713
 Frc consts  --     14.6652                41.8126                 5.6100
 IR Inten    --      5.9338                 2.9157                41.7925

                     43                     44                     45
                      A                      A                      A
 Frequencies --   2998.6817              3021.5618              3062.7836
 Red. masses --      1.0842                 1.0357                 1.0859
 Frc consts  --      5.7443                 5.5712                 6.0016
 IR Inten    --     37.6091                22.7545                 5.8614

                     46                     47                     48
                      A                      A                      A
 Frequencies --   3088.2131              3093.4087              3105.2956
 Red. masses --      1.0875                 1.1002                 1.1015
 Frc consts  --      6.1106                 6.2029                 6.2579
 IR Inten    --      2.5738                37.9864                27.7953

                     49                     50                     51
                      A                      A                      A
 Frequencies --   3437.2204              3468.7986              3549.1315
 Red. masses --      1.0741                 1.0500                 1.0906
 Frc consts  --      7.4766                 7.4436                 8.0941
 IR Inten    --      1.3494                 0.5793                 0.1309

 - Thermochemistry -
 -------------------
 Temperature   298.150 Kelvin.  Pressure   1.00000 Atm.
 Atom     1 has atomic number  6 and mass  12.00000

 Molecular mass:   126.09055 amu.
 Principal axes and moments of inertia in atomic units:
                           1         2         3
     Eigenvalues --   292.095563510.253103623.93740
           X            0.99994  -0.00941  -0.00624
           Y            0.00935   0.99992  -0.00862
           Z            0.00632   0.00856   0.99994
 This molecule is an asymmetric top.
 Rotational symmetry number  1.
 Rotational temperatures (Kelvin)      0.29653     0.02467     0.02390
 Rotational constants (GHZ):           6.17860     0.51413     0.49801
 Zero-point vibrational energy     413369.8 (Joules/Mol)
                                   98.79775 (Kcal/Mol)
 Warning -- explicit consideration of  15 degrees of freedom as
           vibrations may cause significant error
 Vibrational temperatures:     58.89    71.20   125.67   204.26   275.00
          (Kelvin)            292.22   313.74   363.11   444.78   554.39
                              565.31   644.78   680.57   768.56   860.40
                             1042.84  1235.00  1293.96  1334.10  1375.62
                             1397.62  1413.59  1498.82  1547.99  1607.61
                             1640.21  1706.06  1766.20  1811.22  1916.41
                             1945.17  1984.15  2012.32  2031.65  2139.19
                             2142.22  2152.53  2172.70  2383.93  2485.67
                             3412.02  4289.38  4314.43  4347.35  4406.66
                             4443.25  4450.73  4467.83  4945.39  4990.83
                             5106.41

 Zero-point correction=                           0.157444 (Hartree/Particle)
 Thermal correction to Energy=                    0.168059
 Thermal correction to Enthalpy=                  0.169003
 Thermal correction to Gibbs Free Energy=         0.120465
 Sum of electronic and zero-point Energies=           -415.355783
 Sum of electronic and thermal Energies=              -415.345168
 Sum of electronic and thermal Enthalpies=            -415.344224
 Sum of electronic and thermal Free Energies=         -415.392762

                     E (Thermal)             CV                S
                      KCal/Mol        Cal/Mol-Kelvin    Cal/Mol-Kelvin
 Total                  105.459             36.802            102.157
 Electronic               0.000              0.000              0.000
 Translational            0.889              2.981             40.409
 Rotational               0.889              2.981             29.698
 Vibrational            103.681             30.840             32.050
 Vibration     1          0.594              1.981              5.214
 Vibration     2          0.595              1.978              4.838
 Vibration     3          0.601              1.958              3.719
 Vibration     4          0.615              1.911              2.777
 Vibration     5          0.634              1.852              2.217
 Vibration     6          0.639              1.835              2.105
 Vibration     7          0.646              1.814              1.975
 Vibration     8          0.664              1.759              1.714
 Vibration     9          0.698              1.656              1.367
 Vibration    10          0.754              1.502              1.018
 Vibration    11          0.760              1.485              0.989
 Vibration    12          0.807              1.365              0.801
 Vibration    13          0.830              1.310              0.729
 Vibration    14          0.889              1.174              0.578
 Vibration    15          0.956              1.036              0.453

                           ! Non-Optimized Parameters !
 Normal termination of Gaussian 16 at Mon May 31 19:54:26 2021.
