 Gaussian 16, Revision A.03,
 Gaussian 16:  ES64L-G16RevA.03 25-Dec-2016

 -----------------------------
 # opt freq b3lyp/6-31g(2df,p)
 -----------------------------

 -------------------
 Title Card Required
 -------------------
 Symbolic Z-matrix:
 Charge =  0 Multiplicity = 1

 SCF Done:  E(RB3LYP) =  -433.915804639     A.U. after   13 cycles
 SCF Done:  E(RB3LYP) =  -433.921833990     A.U. after   13 cycles
 SCF Done:  E(RB3LYP) =  -433.923426582     A.U. after   13 cycles
 SCF Done:  E(RB3LYP) =  -433.924150165     A.U. after   13 cycles
 SCF Done:  E(RB3LYP) =  -433.924889529     A.U. after   13 cycles
 SCF Done:  E(RB3LYP) =  -433.925538736     A.U. after   13 cycles
 SCF Done:  E(RB3LYP) =  -433.925725471     A.U. after   12 cycles
 SCF Done:  E(RB3LYP) =  -433.925803410     A.U. after   11 cycles
 SCF Done:  E(RB3LYP) =  -433.925823117     A.U. after   10 cycles
 SCF Done:  E(RB3LYP) =  -433.925831594     A.U. after   10 cycles
 SCF Done:  E(RB3LYP) =  -433.925837280     A.U. after   10 cycles
 SCF Done:  E(RB3LYP) =  -433.925843896     A.U. after   11 cycles
 SCF Done:  E(RB3LYP) =  -433.925847479     A.U. after   11 cycles
 SCF Done:  E(RB3LYP) =  -433.925849515     A.U. after   11 cycles
 SCF Done:  E(RB3LYP) =  -433.925849672     A.U. after    8 cycles
 Optimization completed.
    -- Stationary point found.
 Normal termination of Gaussian 16 at Tue Jun  1 19:09:56 2021.

 ----------------------------------------------------------------------
 #N Geom=AllCheck Guess=TCheck SCRF=Check GenChk RB3LYP/6-31G(2df,p) Fr
 eq
 ----------------------------------------------------------------------

 Structure from the checkpoint file:  "CCpNCNdNpNpCpN.chk"
 -------------------
 Title Card Required
 -------------------
 Charge =  0 Multiplicity = 1

                         Standard orientation:
 ---------------------------------------------------------------------
 Center     Atomic      Atomic             Coordinates (Angstroms)
 Number     Number       Type             X           Y           Z
 ---------------------------------------------------------------------
      1          6           0        0.890190    1.898329   -0.137262
      2          6           0        0.718626    0.417464    0.208424
      3          7           0       -0.540447   -0.071082   -0.354324
      4          6           0       -1.725973    0.365006    0.360794
      5          7           0       -2.801292   -0.588871    0.049795
      6          7           0       -3.889167   -0.035978   -0.164093
      7          7           0        1.815361   -0.396652   -0.327700
      8          6           0        3.140358    0.085781    0.047238
      9          7           0        1.727783   -1.769665    0.050737
     10          1           0       -0.006785    2.453778    0.147343
     11          1           0        1.036714    2.010853   -1.214756
     12          1           0        1.730981    2.346222    0.395676
     13          1           0        0.707369    0.318141    1.325712
     14          1           0       -0.542149   -1.085538   -0.323394
     15          1           0       -2.023874    1.383608    0.088081
     16          1           0       -1.607561    0.322769    1.463103
     17          1           0       -4.572673   -0.791667   -0.348066
     18          1           0        3.341923    1.051385   -0.420286
     19          1           0        3.871714   -0.636954   -0.314609
     20          1           0        3.272979    0.191137    1.140419
     21          1           0        1.112668   -2.253473   -0.594017
     22          1           0        1.353829   -1.874006    0.998722
 ---------------------------------------------------------------------

 SCF Done:  E(RB3LYP) =  -433.925849672     A.U. after    1 cycles

 The electronic state is 1-A.
 Alpha  occ. eigenvalues --  -14.39029 -14.37975 -14.34607 -14.33891 -14.31667
 Alpha  occ. eigenvalues --  -10.24032 -10.23527 -10.19541 -10.17586  -1.03704
 Alpha  occ. eigenvalues --   -0.97874  -0.90533  -0.80288  -0.75352  -0.71264
 Alpha  occ. eigenvalues --   -0.66019  -0.60237  -0.57911  -0.52447  -0.50779
 Alpha  occ. eigenvalues --   -0.49063  -0.47420  -0.45949  -0.44912  -0.42762
 Alpha  occ. eigenvalues --   -0.40191  -0.39793  -0.38444  -0.37851  -0.36551
 Alpha  occ. eigenvalues --   -0.35931  -0.35471  -0.25557  -0.23803  -0.23311
 Alpha  occ. eigenvalues --   -0.22336
 Alpha virt. eigenvalues --   -0.04805   0.06773   0.09484   0.10289   0.11130
 Alpha virt. eigenvalues --    0.12522   0.14052   0.14757   0.15985   0.16863
 Alpha virt. eigenvalues --    0.17144   0.17745   0.18201   0.19473   0.19948

 Mulliken charges:
               1
     1  C   -0.404457
     2  C    0.132924
     3  N   -0.306842
     4  C   -0.049291
     5  N   -0.130205
     6  N   -0.264810
     7  N   -0.084186
     8  C   -0.293975
     9  N   -0.474271
    10  H    0.120639
    11  H    0.136921
    12  H    0.119394
    13  H    0.024843
    14  H    0.201726
    15  H    0.119474
    16  H    0.096453
    17  H    0.247308
    18  H    0.122075
    19  H    0.133327
    20  H    0.087351
    21  H    0.250732
    22  H    0.214870
 Sum of Mulliken charges =  -0.00000

 Dipole moment (field-independent basis, Debye):
    X=             -0.3941    Y=             -0.2351    Z=              1.4371  Tot=              1.5086
 Quadrupole moment (field-independent basis, Debye-Ang):
   XX=            -55.9115   YY=            -54.5230   ZZ=            -56.8281
   XY=              6.2650   XZ=              0.8363   YZ=              0.3855

  Exact polarizability: 109.935   3.485  78.943   3.307   0.644  63.612
 Approx polarizability: 135.174   0.639 113.136   5.204   1.323 102.726

                      1                      2                      3
                      A                      A                      A
 Frequencies --     35.0835                62.1558                73.7403
 Red. masses --      2.6269                 4.5547                 3.4600
 Frc consts  --      0.0019                 0.0104                 0.0111
 IR Inten    --      1.1225                 0.8895                 0.0468

                      4                      5                      6
                      A                      A                      A
 Frequencies --     95.3253               176.3045               214.9119
 Red. masses --      3.6343                 3.2888                 1.0595
 Frc consts  --      0.0195                 0.0602                 0.0288
 IR Inten    --      0.8125                 0.2401                 0.1678

                      7                      8                      9
                      A                      A                      A
 Frequencies --    239.8790               303.1627               318.4771
 Red. masses --      1.5421                 2.3531                 2.8284
 Frc consts  --      0.0523                 0.1274                 0.1690
 IR Inten    --      0.6846                 3.9992                 6.2439

                     10                     11                     12
                      A                      A                      A
 Frequencies --    347.2773               385.0842               403.9023
 Red. masses --      2.5409                 1.3683                 2.0816
 Frc consts  --      0.1805                 0.1195                 0.2001
 IR Inten    --     11.8171                14.9176                 5.6209

                     13                     14                     15
                      A                      A                      A
 Frequencies --    480.2063               516.1176               528.3858
 Red. masses --      3.1494                 2.4482                 2.6168
 Frc consts  --      0.4279                 0.3842                 0.4304
 IR Inten    --      3.1327                 3.1322                12.6572

                     16                     17                     18
                      A                      A                      A
 Frequencies --    604.9866               793.9686               799.6191
 Red. masses --      3.1737                 1.7887                 1.8487
 Frc consts  --      0.6844                 0.6643                 0.6965
 IR Inten    --     19.4120                69.2157                 6.8222

                     19                     20                     21
                      A                      A                      A
 Frequencies --    854.5480               886.1860               916.3519
 Red. masses --      1.3185                 1.6262                 2.5965
 Frc consts  --      0.5673                 0.7524                 1.2846
 IR Inten    --     30.8055               114.6337                 1.5287

                     22                     23                     24
                      A                      A                      A
 Frequencies --    979.1355              1009.1607              1086.1282
 Red. masses --      2.3003                 2.0835                 1.6459
 Frc consts  --      1.2993                 1.2502                 1.1440
 IR Inten    --     33.5831                21.0401                 2.0489

                     25                     26                     27
                      A                      A                      A
 Frequencies --   1095.0610              1123.7843              1146.4741
 Red. masses --      1.7403                 1.7724                 1.7837
 Frc consts  --      1.2295                 1.3188                 1.3813
 IR Inten    --     11.1526                36.4205                24.2207

                     28                     29                     30
                      A                      A                      A
 Frequencies --   1157.2621              1191.2984              1227.3359
 Red. masses --      1.8814                 3.0265                 1.1010
 Frc consts  --      1.4846                 2.5306                 0.9771
 IR Inten    --      5.3265                63.4866                 5.6568

                     31                     32                     33
                      A                      A                      A
 Frequencies --   1238.7268              1245.8592              1303.6965
 Red. masses --      3.1159                 2.2547                 1.2625
 Frc consts  --      2.8170                 2.0619                 1.2642
 IR Inten    --     12.8091                21.6863                27.3347

                     34                     35                     36
                      A                      A                      A
 Frequencies --   1349.2075              1378.1177              1387.0302
 Red. masses --      1.2104                 1.3865                 1.3505
 Frc consts  --      1.2982                 1.5515                 1.5308
 IR Inten    --     27.3204                28.7740                23.2309

                     37                     38                     39
                      A                      A                      A
 Frequencies --   1408.3919              1446.9268              1482.8525
 Red. masses --      1.3076                 1.1635                 1.1459
 Frc consts  --      1.5282                 1.4352                 1.4845
 IR Inten    --     25.1160                 0.3281                35.7485

                     40                     41                     42
                      A                      A                      A
 Frequencies --   1488.6107              1492.5076              1498.9376
 Red. masses --      1.0532                 1.2684                 1.1469
 Frc consts  --      1.3751                 1.6648                 1.5183
 IR Inten    --     10.5037                45.2977                20.4369

                     43                     44                     45
                      A                      A                      A
 Frequencies --   1502.2954              1505.5398              1510.3939
 Red. masses --      1.0564                 1.1072                 1.0676
 Frc consts  --      1.4047                 1.4787                 1.4349
 IR Inten    --      2.6953                 4.2467                10.6010

                     46                     47                     48
                      A                      A                      A
 Frequencies --   1658.3931              1666.4723              2745.9521
 Red. masses --      1.0873                10.3989                 1.0764
 Frc consts  --      1.7619                17.0151                 4.7818
 IR Inten    --     14.0963                 4.9485               104.3590

                     49                     50                     51
                      A                      A                      A
 Frequencies --   2893.1809              2933.8426              3050.7992
 Red. masses --      1.0696                 1.0613                 1.0740
 Frc consts  --      5.2751                 5.3821                 5.8896
 IR Inten    --     57.1862                78.7578                 6.2583

                     52                     53                     54
                      A                      A                      A
 Frequencies --   3056.8096              3098.0985              3126.5834
 Red. masses --      1.0486                 1.0714                 1.1002
 Frc consts  --      5.7727                 6.0591                 6.3365
 IR Inten    --     26.7664                26.5135                31.6981

                     55                     56                     57
                      A                      A                      A
 Frequencies --   3138.1355              3150.1445              3247.7683
 Red. masses --      1.1023                 1.1024                 1.0738
 Frc consts  --      6.3960                 6.4451                 6.6733
 IR Inten    --     16.2245                13.2676                28.3460

                     58                     59                     60
                      A                      A                      A
 Frequencies --   3373.1969              3524.1403              3553.5909
 Red. masses --      1.0556                 1.0714                 1.0850
 Frc consts  --      7.0765                 7.8400                 8.0728
 IR Inten    --     15.5007                 3.1069                 1.8727

 - Thermochemistry -
 -------------------
 Temperature   298.150 Kelvin.  Pressure   1.00000 Atm.
 Atom     1 has atomic number  6 and mass  12.00000

 Molecular mass:   131.11710 amu.
 Principal axes and moments of inertia in atomic units:
                           1         2         3
     Eigenvalues --   509.049762395.694112799.17540
           X            0.99997   0.00766   0.00238
           Y           -0.00766   0.99997   0.00003
           Z           -0.00238  -0.00005   1.00000
 This molecule is an asymmetric top.
 Rotational symmetry number  1.
 Warning -- assumption of classical behavior for rotation
           may cause significant error
 Rotational temperatures (Kelvin)      0.17015     0.03615     0.03094
 Rotational constants (GHZ):           3.54531     0.75333     0.64474
 Zero-point vibrational energy     505467.2 (Joules/Mol)
                                  120.80956 (Kcal/Mol)
 Warning -- explicit consideration of  16 degrees of freedom as
           vibrations may cause significant error
 Vibrational temperatures:     50.48    89.43   106.10   137.15   253.66
          (Kelvin)            309.21   345.13   436.18   458.22   499.65
                              554.05   581.13   690.91   742.58   760.23
                              870.44  1142.34  1150.47  1229.50  1275.02
                             1318.43  1408.76  1451.96  1562.70  1575.55
                             1616.87  1649.52  1665.04  1714.01  1765.86
                             1782.25  1792.51  1875.73  1941.21  1982.80
                             1995.63  2026.36  2081.80  2133.49  2141.78
                             2147.39  2156.64  2161.47  2166.14  2173.12
                             2386.06  2397.68  3950.81  4162.64  4221.15
                             4389.42  4398.07  4457.47  4498.46  4515.08
                             4532.36  4672.81  4853.28  5070.45  5112.82

 Zero-point correction=                           0.192522 (Hartree/Particle)
 Thermal correction to Energy=                    0.203490
 Thermal correction to Enthalpy=                  0.204434
 Thermal correction to Gibbs Free Energy=         0.155139
 Sum of electronic and zero-point Energies=           -433.733327
 Sum of electronic and thermal Energies=              -433.722360
 Sum of electronic and thermal Enthalpies=            -433.721416
 Sum of electronic and thermal Free Energies=         -433.770711

                     E (Thermal)             CV                S
                      KCal/Mol        Cal/Mol-Kelvin    Cal/Mol-Kelvin
 Total                  127.692             38.889            103.749
 Electronic               0.000              0.000              0.000
 Translational            0.889              2.981             40.526
 Rotational               0.889              2.981             29.614
 Vibrational            125.914             32.927             33.610
 Vibration     1          0.594              1.982              5.519
 Vibration     2          0.597              1.972              4.388
 Vibration     3          0.599              1.966              4.051
 Vibration     4          0.603              1.953              3.548
 Vibration     5          0.628              1.872              2.367
 Vibration     6          0.645              1.818              2.002
 Vibration     7          0.657              1.779              1.804
 Vibration     8          0.695              1.668              1.399
 Vibration     9          0.705              1.638              1.318
 Vibration    10          0.725              1.581              1.179
 Vibration    11          0.754              1.502              1.019
 Vibration    12          0.769              1.462              0.948
 Vibration    13          0.837              1.294              0.710
 Vibration    14          0.871              1.214              0.619
 Vibration    15          0.883              1.187              0.591
 Vibration    16          0.964              1.021              0.441

                           ! Non-Optimized Parameters !
 Normal termination of Gaussian 16 at Tue Jun  1 19:39:53 2021.
