 Gaussian 16, Revision A.03,
 Gaussian 16:  ES64L-G16RevA.03 25-Dec-2016

 -----------------------------
 # opt freq b3lyp/6-31g(2df,p)
 -----------------------------

 -------------------
 Title Card Required
 -------------------
 Symbolic Z-matrix:
 Charge =  0 Multiplicity = 1

 SCF Done:  E(RB3LYP) =  -548.522916220     A.U. after   13 cycles
 SCF Done:  E(RB3LYP) =  -548.539483976     A.U. after   12 cycles
 SCF Done:  E(RB3LYP) =  -548.545730956     A.U. after   12 cycles
 SCF Done:  E(RB3LYP) =  -548.551672436     A.U. after   12 cycles
 SCF Done:  E(RB3LYP) =  -548.555800050     A.U. after   11 cycles
 SCF Done:  E(RB3LYP) =  -548.561189816     A.U. after   12 cycles
 SCF Done:  E(RB3LYP) =  -548.563900448     A.U. after   11 cycles
 SCF Done:  E(RB3LYP) =  -548.566069116     A.U. after   12 cycles
 SCF Done:  E(RB3LYP) =  -548.567280140     A.U. after   11 cycles
 SCF Done:  E(RB3LYP) =  -548.568395088     A.U. after   11 cycles
 SCF Done:  E(RB3LYP) =  -548.576247089     A.U. after   10 cycles
 SCF Done:  E(RB3LYP) =  -548.576255522     A.U. after    9 cycles
 SCF Done:  E(RB3LYP) =  -548.576262437     A.U. after    9 cycles
 SCF Done:  E(RB3LYP) =  -548.576268825     A.U. after    9 cycles
 SCF Done:  E(RB3LYP) =  -548.576273384     A.U. after    9 cycles
 SCF Done:  E(RB3LYP) =  -548.576274901     A.U. after    8 cycles
 SCF Done:  E(RB3LYP) =  -548.576276339     A.U. after    8 cycles
 SCF Done:  E(RB3LYP) =  -548.576277069     A.U. after    8 cycles
 SCF Done:  E(RB3LYP) =  -548.576277115     A.U. after    7 cycles
 Optimization completed.
    -- Stationary point found.
 Normal termination of Gaussian 16 at Mon May 31 17:38:28 2021.

 ----------------------------------------------------------------------
 #N Geom=AllCheck Guess=TCheck SCRF=Check GenChk RB3LYP/6-31G(2df,p) Fr
 eq
 ----------------------------------------------------------------------

 Structure from the checkpoint file:  "CCpNppNpNCNCNCdO.chk"
 -------------------
 Title Card Required
 -------------------
 Charge =  0 Multiplicity = 1

                         Standard orientation:
 ---------------------------------------------------------------------
 Center     Atomic      Atomic             Coordinates (Angstroms)
 Number     Number       Type             X           Y           Z
 ---------------------------------------------------------------------
      1          6           0        3.805064   -0.419795   -0.706804
      2          6           0        2.455835   -0.286567    0.015631
      3          7           0        1.585859   -1.481959   -0.160436
      4          7           0        2.683618   -0.107074    1.445117
      5          7           0        1.800567    0.903870   -0.528526
      6          6           0        0.567795    1.341014    0.085265
      7          7           0       -0.602589    0.535706   -0.296650
      8          6           0       -1.859712    1.053542    0.208408
      9          7           0       -2.978686    0.333810   -0.354881
     10          6           0       -3.814828   -0.482409    0.342408
     11          8           0       -4.694716   -1.159948   -0.140965
     12          1           0        4.318821   -1.336068   -0.396565
     13          1           0        4.441132    0.441201   -0.486164
     14          1           0        3.658181   -0.467143   -1.790383
     15          1           0        2.092558   -2.319892    0.117879
     16          1           0        1.350556   -1.597944   -1.143829
     17          1           0        3.593580   -0.456557    1.717755
     18          1           0        1.982384   -0.617308    1.970085
     19          1           0        1.669580    0.806329   -1.530317
     20          1           0        0.366747    2.371409   -0.236945
     21          1           0        0.743474    1.372829    1.170922
     22          1           0       -0.454549   -0.419082    0.021836
     23          1           0       -1.917158    2.116555   -0.064138
     24          1           0       -1.972393    1.004295    1.306224
     25          1           0       -3.057452    0.303177   -1.362177
     26          1           0       -3.604034   -0.447395    1.431725
 ---------------------------------------------------------------------

 SCF Done:  E(RB3LYP) =  -548.576277115     A.U. after    1 cycles

 The electronic state is 1-A.
 Alpha  occ. eigenvalues --  -19.09703 -14.34961 -14.32246 -14.31457 -14.31186
 Alpha  occ. eigenvalues --  -14.30895 -10.27536 -10.26993 -10.24740 -10.22575
 Alpha  occ. eigenvalues --  -10.18482  -1.02376  -0.96003  -0.93654  -0.88882
 Alpha  occ. eigenvalues --   -0.84399  -0.84270  -0.73231  -0.68235  -0.63673
 Alpha  occ. eigenvalues --   -0.61777  -0.58957  -0.52553  -0.50404  -0.50053
 Alpha  occ. eigenvalues --   -0.48842  -0.48290  -0.46158  -0.44719  -0.44353
 Alpha  occ. eigenvalues --   -0.42132  -0.40615  -0.40111  -0.39332  -0.39210
 Alpha  occ. eigenvalues --   -0.37863  -0.37346  -0.35942  -0.26902  -0.26184
 Alpha  occ. eigenvalues --   -0.24873  -0.24589  -0.23236  -0.22562
 Alpha virt. eigenvalues --    0.03706   0.05236   0.09251   0.10215   0.10945
 Alpha virt. eigenvalues --    0.11339   0.12185   0.13357   0.14574   0.14889
 Alpha virt. eigenvalues --    0.15730   0.16384   0.17344   0.18153   0.18699

 Mulliken charges:
               1
     1  C   -0.425223
     2  C    0.247282
     3  N   -0.516950
     4  N   -0.496292
     5  N   -0.268947
     6  C   -0.117320
     7  N   -0.311134
     8  C   -0.102591
     9  N   -0.245461
    10  C    0.153491
    11  O   -0.331644
    12  H    0.104390
    13  H    0.138781
    14  H    0.111420
    15  H    0.218928
    16  H    0.223524
    17  H    0.229583
    18  H    0.229205
    19  H    0.207725
    20  H    0.098312
    21  H    0.106565
    22  H    0.225454
    23  H    0.109115
    24  H    0.098570
    25  H    0.248562
    26  H    0.064654
 Sum of Mulliken charges =  -0.00000

 Dipole moment (field-independent basis, Debye):
    X=              4.7299    Y=             -0.1653    Z=             -0.0140  Tot=              4.7328
 Quadrupole moment (field-independent basis, Debye-Ang):
   XX=            -85.7042   YY=            -67.6391   ZZ=            -62.0480
   XY=            -17.0465   XZ=             -2.2896   YZ=             -2.0616

  Exact polarizability: 120.706   5.020  87.718  -0.613  -0.418  85.396
 Approx polarizability: 145.802  13.576 131.909   2.694  -0.725 130.766

                      1                      2                      3
                      A                      A                      A
 Frequencies --     31.0262                41.9057                70.4211
 Red. masses --      5.1179                 4.8821                 2.2470
 Frc consts  --      0.0029                 0.0051                 0.0066
 IR Inten    --      1.3548                 2.6402                 4.7216

                      4                      5                      6
                      A                      A                      A
 Frequencies --     94.4716               112.8512               118.9017
 Red. masses --      1.4360                 3.2082                 2.2366
 Frc consts  --      0.0076                 0.0241                 0.0186
 IR Inten    --     26.2668                 6.5278                 7.8910

                      7                      8                      9
                      A                      A                      A
 Frequencies --    195.3134               230.0009               262.2393
 Red. masses --      2.2431                 3.7176                 1.4472
 Frc consts  --      0.0504                 0.1159                 0.0586
 IR Inten    --      8.2310                 0.7147                 0.9430

                     10                     11                     12
                      A                      A                      A
 Frequencies --    269.2253               282.1785               338.1041
 Red. masses --      1.7217                 2.3791                 2.1839
 Frc consts  --      0.0735                 0.1116                 0.1471
 IR Inten    --      4.1791                 4.1375                16.9777

                     13                     14                     15
                      A                      A                      A
 Frequencies --    351.7113               371.3627               426.4136
 Red. masses --      1.7676                 2.1046                 3.1024
 Frc consts  --      0.1288                 0.1710                 0.3324
 IR Inten    --     17.0740                13.8410                 2.9543

                     16                     17                     18
                      A                      A                      A
 Frequencies --    476.4324               492.1367               520.1436
 Red. masses --      3.3668                 2.2706                 2.1490
 Frc consts  --      0.4503                 0.3240                 0.3426
 IR Inten    --      4.9588                22.7715                31.2063

                     19                     20                     21
                      A                      A                      A
 Frequencies --    596.6521               632.1041               653.5489
 Red. masses --      2.6752                 1.4070                 3.4769
 Frc consts  --      0.5611                 0.3312                 0.8750
 IR Inten    --     14.3364               102.6332                28.5162

                     22                     23                     24
                      A                      A                      A
 Frequencies --    701.9878               767.7369               818.1635
 Red. masses --      2.3915                 2.9179                 1.4845
 Frc consts  --      0.6943                 1.0133                 0.5855
 IR Inten    --     63.2071                52.9413                76.3931

                     25                     26                     27
                      A                      A                      A
 Frequencies --    870.3866               909.4241               927.1296
 Red. masses --      1.3312                 1.8980                 1.2939
 Frc consts  --      0.5942                 0.9248                 0.6553
 IR Inten    --     54.0201               140.1630                39.5196

                     28                     29                     30
                      A                      A                      A
 Frequencies --    965.0537               977.1132              1012.3469
 Red. masses --      1.7046                 1.8499                 1.6196
 Frc consts  --      0.9354                 1.0406                 0.9780
 IR Inten    --     54.5329                14.6885                20.3507

                     31                     32                     33
                      A                      A                      A
 Frequencies --   1035.7146              1049.1114              1099.2430
 Red. masses --      1.9430                 1.5522                 1.8701
 Frc consts  --      1.2280                 1.0066                 1.3314
 IR Inten    --     31.4943                 2.1505                44.9308

                     34                     35                     36
                      A                      A                      A
 Frequencies --   1113.5695              1130.8093              1159.5236
 Red. masses --      3.4840                 2.3425                 2.9834
 Frc consts  --      2.5454                 1.7648                 2.3633
 IR Inten    --     68.1913                46.5697                 7.5665

                     37                     38                     39
                      A                      A                      A
 Frequencies --   1166.5206              1200.5110              1237.7965
 Red. masses --      2.3125                 2.2701                 1.2953
 Frc consts  --      1.8540                 1.9277                 1.1692
 IR Inten    --     86.5777                70.1271                10.4997

                     40                     41                     42
                      A                      A                      A
 Frequencies --   1288.1563              1311.8230              1333.7762
 Red. masses --      1.8699                 1.4536                 1.6102
 Frc consts  --      1.8282                 1.4739                 1.6877
 IR Inten    --    145.1440                20.5112                30.8094

                     43                     44                     45
                      A                      A                      A
 Frequencies --   1348.3573              1374.9687              1404.8651
 Red. masses --      1.7142                 1.3160                 1.3127
 Frc consts  --      1.8362                 1.4659                 1.5264
 IR Inten    --     52.2016                 6.6112                13.8879

                     46                     47                     48
                      A                      A                      A
 Frequencies --   1411.4094              1442.0580              1477.2832
 Red. masses --      1.1799                 1.2855                 1.1288
 Frc consts  --      1.3849                 1.5751                 1.4515
 IR Inten    --     21.9787                18.7026                 4.7571

                     49                     50                     51
                      A                      A                      A
 Frequencies --   1485.2795              1489.3407              1494.5970
 Red. masses --      1.2296                 1.6393                 1.0751
 Frc consts  --      1.5982                 2.1424                 1.4149
 IR Inten    --     43.2964               113.5842                 7.0337

                     52                     53                     54
                      A                      A                      A
 Frequencies --   1509.2969              1512.3904              1522.5789
 Red. masses --      1.1025                 1.2027                 1.1115
 Frc consts  --      1.4797                 1.6209                 1.5182
 IR Inten    --      0.1758                39.2043                 6.0165

                     55                     56                     57
                      A                      A                      A
 Frequencies --   1638.0751              1657.8665              1820.4407
 Red. masses --      1.1058                 1.1011                 7.5507
 Frc consts  --      1.7483                 1.7832                14.7432
 IR Inten    --     26.8862                34.4836               488.1936

                     58                     59                     60
                      A                      A                      A
 Frequencies --   2914.4409              2947.6915              2995.1787
 Red. masses --      1.0816                 1.0705                 1.0597
 Frc consts  --      5.4128                 5.4805                 5.6012
 IR Inten    --     51.8446                88.5127                42.3387

                     61                     62                     63
                      A                      A                      A
 Frequencies --   3016.3143              3031.2381              3033.4963
 Red. masses --      1.0897                 1.1025                 1.0359
 Frc consts  --      5.8415                 5.9686                 5.6165
 IR Inten    --     44.8486                47.6912                16.0079

                     64                     65                     66
                      A                      A                      A
 Frequencies --   3102.5528              3123.7741              3460.0791
 Red. masses --      1.1012                 1.1018                 1.0490
 Frc consts  --      6.2453                 6.3344                 7.3994
 IR Inten    --     27.4380                16.6340                 0.6664

                     67                     68                     69
                      A                      A                      A
 Frequencies --   3495.0085              3524.3339              3525.8289
 Red. masses --      1.0744                 1.0599                 1.0629
 Frc consts  --      7.7322                 7.7565                 7.7848
 IR Inten    --     33.2584                 1.7258                 0.5556

                     70                     71                     72
                      A                      A                      A
 Frequencies --   3545.6733              3603.2379              3611.6643
 Red. masses --      1.0915                 1.0754                 1.0936
 Frc consts  --      8.0847                 8.2262                 8.4050
 IR Inten    --      0.7546                20.9267                 3.1291

 - Thermochemistry -
 -------------------
 Temperature   298.150 Kelvin.  Pressure   1.00000 Atm.
 Atom     1 has atomic number  6 and mass  12.00000

 Molecular mass:   161.12766 amu.
 Principal axes and moments of inertia in atomic units:
                           1         2         3
     Eigenvalues --   718.189834656.747534902.86936
           X            0.99986  -0.01543  -0.00593
           Y            0.01550   0.99982   0.01060
           Z            0.00577  -0.01069   0.99993
 This molecule is an asymmetric top.
 Rotational symmetry number  1.
 Warning -- assumption of classical behavior for rotation
           may cause significant error
 Rotational temperatures (Kelvin)      0.12060     0.01860     0.01767
 Rotational constants (GHZ):           2.51290     0.38755     0.36810
 Zero-point vibrational energy     599104.0 (Joules/Mol)
                                  143.18928 (Kcal/Mol)
 Warning -- explicit consideration of  19 degrees of freedom as
           vibrations may cause significant error
 Vibrational temperatures:     44.64    60.29   101.32   135.92   162.37
          (Kelvin)            171.07   281.01   330.92   377.30   387.36
                              405.99   486.46   506.03   534.31   613.51
                              685.48   708.08   748.37   858.45   909.46
                              940.31  1010.00  1104.60  1177.15  1252.29
                             1308.46  1333.93  1388.50  1405.85  1456.54
                             1490.16  1509.44  1581.57  1602.18  1626.98
                             1668.30  1678.36  1727.27  1780.91  1853.37
                             1887.42  1919.01  1939.99  1978.27  2021.29
                             2030.70  2074.80  2125.48  2136.99  2142.83
                             2150.39  2171.54  2175.99  2190.65  2356.82
                             2385.30  2619.21  4193.23  4241.07  4309.39
                             4339.80  4361.28  4364.52  4463.88  4494.41
                             4978.28  5028.54  5070.73  5072.88  5101.43
                             5184.26  5196.38

 Zero-point correction=                           0.228187 (Hartree/Particle)
 Thermal correction to Energy=                    0.241493
 Thermal correction to Enthalpy=                  0.242437
 Thermal correction to Gibbs Free Energy=         0.187376
 Sum of electronic and zero-point Energies=           -548.348090
 Sum of electronic and thermal Energies=              -548.334784
 Sum of electronic and thermal Enthalpies=            -548.333840
 Sum of electronic and thermal Free Energies=         -548.388901

                     E (Thermal)             CV                S
                      KCal/Mol        Cal/Mol-Kelvin    Cal/Mol-Kelvin
 Total                  151.539             48.108            115.886
 Electronic               0.000              0.000              0.000
 Translational            0.889              2.981             41.140
 Rotational               0.889              2.981             31.173
 Vibrational            149.762             42.146             43.573
 Vibration     1          0.594              1.983              5.763
 Vibration     2          0.595              1.980              5.167
 Vibration     3          0.598              1.968              4.142
 Vibration     4          0.603              1.953              3.565
 Vibration     5          0.607              1.939              3.219
 Vibration     6          0.609              1.934              3.118
 Vibration     7          0.636              1.846              2.177
 Vibration     8          0.652              1.795              1.879
 Vibration     9          0.670              1.742              1.647
 Vibration    10          0.674              1.730              1.601
 Vibration    11          0.681              1.707              1.520
 Vibration    12          0.718              1.599              1.221
 Vibration    13          0.728              1.572              1.159
 Vibration    14          0.743              1.531              1.074
 Vibration    15          0.788              1.413              0.870
 Vibration    16          0.833              1.302              0.720
 Vibration    17          0.848              1.267              0.678
 Vibration    18          0.875              1.205              0.610
 Vibration    19          0.954              1.039              0.455

                           ! Non-Optimized Parameters !
 Normal termination of Gaussian 16 at Mon May 31 18:27:39 2021.
