 Gaussian 16, Revision A.03,
 Gaussian 16:  ES64L-G16RevA.03 25-Dec-2016

 -----------------------------
 # opt freq b3lyp/6-31g(2df,p)
 -----------------------------

 -------------------
 Title Card Required
 -------------------
 Symbolic Z-matrix:
 Charge =  0 Multiplicity = 1

 SCF Done:  E(RB3LYP) =  -339.262672360     A.U. after   13 cycles
 SCF Done:  E(RB3LYP) =  -339.268294401     A.U. after   13 cycles
 SCF Done:  E(RB3LYP) =  -339.270027231     A.U. after   13 cycles
 SCF Done:  E(RB3LYP) =  -339.270287609     A.U. after   12 cycles
 SCF Done:  E(RB3LYP) =  -339.270455012     A.U. after   13 cycles
 SCF Done:  E(RB3LYP) =  -339.270540722     A.U. after   12 cycles
 SCF Done:  E(RB3LYP) =  -339.270565192     A.U. after   11 cycles
 SCF Done:  E(RB3LYP) =  -339.270574219     A.U. after    9 cycles
 SCF Done:  E(RB3LYP) =  -339.270576122     A.U. after    9 cycles
 SCF Done:  E(RB3LYP) =  -339.270576266     A.U. after    8 cycles
 Optimization completed.
    -- Stationary point found.
 Normal termination of Gaussian 16 at Tue Jun  1 04:06:07 2021.

 ----------------------------------------------------------------------
 #N Geom=AllCheck Guess=TCheck SCRF=Check GenChk RB3LYP/6-31G(2df,p) Fr
 eq
 ----------------------------------------------------------------------

 Structure from the checkpoint file:  "CCpNdNpNpCpN.chk"
 -------------------
 Title Card Required
 -------------------
 Charge =  0 Multiplicity = 1

                         Standard orientation:
 ---------------------------------------------------------------------
 Center     Atomic      Atomic             Coordinates (Angstroms)
 Number     Number       Type             X           Y           Z
 ---------------------------------------------------------------------
      1          6           0       -0.431850    1.839198   -0.131984
      2          6           0       -0.269183    0.358162    0.220086
      3          7           0       -1.403377   -0.361943   -0.410692
      4          7           0       -2.356594   -0.510043    0.367317
      5          7           0        0.949295   -0.226032   -0.325385
      6          6           0        2.170091    0.391340    0.169701
      7          7           0        1.023687   -1.633397   -0.078245
      8          1           0       -1.414642    2.182925    0.199621
      9          1           0       -0.348498    1.981230   -1.212755
     10          1           0        0.325607    2.446877    0.366779
     11          1           0       -0.337477    0.223691    1.318659
     12          1           0       -3.106288   -0.981118   -0.169002
     13          1           0        2.233731    1.430163   -0.161760
     14          1           0        3.015612   -0.161005   -0.242195
     15          1           0        2.251492    0.372459    1.273330
     16          1           0        0.330827   -2.070266   -0.679328
     17          1           0        0.744213   -1.837247    0.888869
 ---------------------------------------------------------------------

 SCF Done:  E(RB3LYP) =  -339.270576266     A.U. after    1 cycles

 The electronic state is 1-A.
 Alpha  occ. eigenvalues --  -14.38717 -14.37920 -14.34573 -14.33288 -10.23796
 Alpha  occ. eigenvalues --  -10.19818 -10.18505  -1.03770  -0.96953  -0.81256
 Alpha  occ. eigenvalues --   -0.76074  -0.68945  -0.64486  -0.56885  -0.52122
 Alpha  occ. eigenvalues --   -0.49427  -0.47524  -0.45654  -0.42240  -0.41226
 Alpha  occ. eigenvalues --   -0.39960  -0.39136  -0.38325  -0.36622  -0.34801
 Alpha  occ. eigenvalues --   -0.25588  -0.23398  -0.22360
 Alpha virt. eigenvalues --   -0.04925   0.08527   0.10151   0.11014   0.12520
 Alpha virt. eigenvalues --    0.14933   0.15559   0.16753   0.17213   0.17732
 Alpha virt. eigenvalues --    0.19493   0.19968   0.21297   0.22672   0.24267

 Mulliken charges:
               1
     1  C   -0.411095
     2  C    0.145001
     3  N   -0.127894
     4  N   -0.272195
     5  N   -0.071988
     6  C   -0.299845
     7  N   -0.471097
     8  H    0.131823
     9  H    0.138437
    10  H    0.129230
    11  H    0.057725
    12  H    0.245404
    13  H    0.120343
    14  H    0.137627
    15  H    0.087736
    16  H    0.248790
    17  H    0.211997
 Sum of Mulliken charges =  -0.00000

 Dipole moment (field-independent basis, Debye):
    X=             -0.8207    Y=              0.5263    Z=              0.6306  Tot=              1.1611
 Quadrupole moment (field-independent basis, Debye-Ang):
   XX=            -42.2299   YY=            -40.7795   ZZ=            -45.5626
   XY=              4.1567   XZ=              3.0366   YZ=             -0.5735

  Exact polarizability:  75.996   5.776  64.149  -0.249  -0.219  51.340
 Approx polarizability: 100.848   8.056  87.514  -4.990  -0.650  83.246

                      1                      2                      3
                      A                      A                      A
 Frequencies --     68.9077                82.1992               197.7938
 Red. masses --      7.1418                 2.9291                 1.1806
 Frc consts  --      0.0200                 0.0117                 0.0272
 IR Inten    --      0.5986                 0.5338                 0.1049

                      4                      5                      6
                      A                      A                      A
 Frequencies --    215.7507               273.0578               288.8910
 Red. masses --      1.3605                 2.0804                 2.5735
 Frc consts  --      0.0373                 0.0914                 0.1265
 IR Inten    --      0.4202                 3.7289                 5.9196

                      7                      8                      9
                      A                      A                      A
 Frequencies --    334.6249               370.8461               422.9970
 Red. masses --      1.1951                 2.2271                 2.8866
 Frc consts  --      0.0788                 0.1805                 0.3043
 IR Inten    --     28.0254                 0.6210                 2.9959

                     10                     11                     12
                      A                      A                      A
 Frequencies --    481.2109               494.0256               576.2107
 Red. masses --      3.1179                 2.8043                 3.8771
 Frc consts  --      0.4254                 0.4032                 0.7584
 IR Inten    --      4.9983                 2.8274                10.2061

                     13                     14                     15
                      A                      A                      A
 Frequencies --    827.8648               856.0939               918.1738
 Red. masses --      2.3164                 2.3199                 1.4867
 Frc consts  --      0.9354                 1.0018                 0.7385
 IR Inten    --     23.8518                 6.2612                17.3288

                     16                     17                     18
                      A                      A                      A
 Frequencies --    951.4030              1012.5114              1062.9113
 Red. masses --      1.9007                 1.7107                 1.9940
 Frc consts  --      1.0136                 1.0333                 1.3273
 IR Inten    --     60.7834                55.7173                19.7489

                     19                     20                     21
                      A                      A                      A
 Frequencies --   1117.9057              1139.3453              1156.4574
 Red. masses --      1.6459                 1.5892                 1.5163
 Frc consts  --      1.2119                 1.2155                 1.1948
 IR Inten    --     29.3812                16.7810                15.8645

                     22                     23                     24
                      A                      A                      A
 Frequencies --   1243.6163              1251.4736              1322.9408
 Red. masses --      2.3178                 2.7294                 1.2370
 Frc consts  --      2.1120                 2.5186                 1.2756
 IR Inten    --     17.1524                10.6793                29.1265

                     25                     26                     27
                      A                      A                      A
 Frequencies --   1341.8354              1372.1268              1394.4962
 Red. masses --      1.4425                 1.3898                 1.2492
 Frc consts  --      1.5302                 1.5417                 1.4313
 IR Inten    --     16.8632                35.3974                13.9394

                     28                     29                     30
                      A                      A                      A
 Frequencies --   1446.7492              1485.1457              1488.2391
 Red. masses --      1.1608                 1.1371                 1.1530
 Frc consts  --      1.4315                 1.4777                 1.5046
 IR Inten    --      2.4470                 2.8120                28.7454

                     31                     32                     33
                      A                      A                      A
 Frequencies --   1494.7015              1500.5523              1504.0447
 Red. masses --      1.0763                 1.0711                 1.0497
 Frc consts  --      1.4167                 1.4210                 1.3991
 IR Inten    --     10.2028                 4.1231                 3.7741

                     34                     35                     36
                      A                      A                      A
 Frequencies --   1656.3085              1669.2595              2896.7526
 Red. masses --      5.2631                 1.2005                 1.0804
 Frc consts  --      8.5070                 1.9708                 5.3416
 IR Inten    --      2.9849                15.3872                38.4104

                     37                     38                     39
                      A                      A                      A
 Frequencies --   2928.7175              3053.6780              3091.3983
 Red. masses --      1.0618                 1.0342                 1.0705
 Frc consts  --      5.3658                 5.6823                 6.0274
 IR Inten    --     86.6988                 9.6476                29.1080

                     40                     41                     42
                      A                      A                      A
 Frequencies --   3133.0562              3136.6362              3145.0743
 Red. masses --      1.1021                 1.1018                 1.1021
 Frc consts  --      6.3741                 6.3870                 6.4228
 IR Inten    --     16.3794                12.7810                11.7993

                     43                     44                     45
                      A                      A                      A
 Frequencies --   3246.9994              3341.0173              3537.7544
 Red. masses --      1.0740                 1.0583                 1.0811
 Frc consts  --      6.6715                 6.9599                 7.9718
 IR Inten    --     27.5473                19.5894                 2.6479

 - Thermochemistry -
 -------------------
 Temperature   298.150 Kelvin.  Pressure   1.00000 Atm.
 Atom     1 has atomic number  6 and mass  12.00000

 Molecular mass:   102.09055 amu.
 Principal axes and moments of inertia in atomic units:
                           1         2         3
     Eigenvalues --   451.57891 848.321891204.78692
           X            0.99982   0.01454   0.01225
           Y           -0.01448   0.99988  -0.00476
           Z           -0.01231   0.00458   0.99991
 This molecule is an asymmetric top.
 Rotational symmetry number  1.
 Warning -- assumption of classical behavior for rotation
           may cause significant error
 Rotational temperatures (Kelvin)      0.19180     0.10210     0.07189
 Rotational constants (GHZ):           3.99651     2.12743     1.49798
 Zero-point vibrational energy     385985.6 (Joules/Mol)
                                   92.25278 (Kcal/Mol)
 Warning -- explicit consideration of  12 degrees of freedom as
           vibrations may cause significant error
 Vibrational temperatures:     99.14   118.27   284.58   310.42   392.87
          (Kelvin)            415.65   481.45   533.56   608.60   692.36
                              710.79   829.04  1191.11  1231.73  1321.05
                             1368.86  1456.78  1529.29  1608.42  1639.26
                             1663.88  1789.29  1800.59  1903.42  1930.60
                             1974.18  2006.37  2081.55  2136.79  2141.24
                             2150.54  2158.96  2163.98  2383.06  2401.69
                             4167.78  4213.77  4393.56  4447.83  4507.77
                             4512.92  4525.06  4671.71  4806.98  5090.04

 Zero-point correction=                           0.147014 (Hartree/Particle)
 Thermal correction to Energy=                    0.155504
 Thermal correction to Enthalpy=                  0.156449
 Thermal correction to Gibbs Free Energy=         0.114229
 Sum of electronic and zero-point Energies=           -339.123562
 Sum of electronic and thermal Energies=              -339.115072
 Sum of electronic and thermal Enthalpies=            -339.114128
 Sum of electronic and thermal Free Energies=         -339.156347

                     E (Thermal)             CV                S
                      KCal/Mol        Cal/Mol-Kelvin    Cal/Mol-Kelvin
 Total                   97.581             30.068             88.859
 Electronic               0.000              0.000              0.000
 Translational            0.889              2.981             39.780
 Rotational               0.889              2.981             27.625
 Vibrational             95.803             24.106             21.454
 Vibration     1          0.598              1.969              4.184
 Vibration     2          0.600              1.961              3.838
 Vibration     3          0.637              1.843              2.154
 Vibration     4          0.645              1.817              1.994
 Vibration     5          0.676              1.723              1.577
 Vibration     6          0.685              1.694              1.480
 Vibration     7          0.716              1.606              1.238
 Vibration     8          0.743              1.532              1.076
 Vibration     9          0.785              1.420              0.882
 Vibration    10          0.838              1.292              0.707
 Vibration    11          0.850              1.263              0.673
 Vibration    12          0.933              1.083              0.492

 Optimization completed.
    -- Stationary point found.
 Normal termination of Gaussian 16 at Tue Jun  1 04:23:27 2021.
