 Gaussian 16, Revision A.03,
 Gaussian 16:  ES64L-G16RevA.03 25-Dec-2016

 -----------------------------
 # opt freq b3lyp/6-31g(2df,p)
 -----------------------------

 -------------------
 Title Card Required
 -------------------
 Symbolic Z-matrix:
 Charge =  0 Multiplicity = 1

 SCF Done:  E(RB3LYP) =  -419.142128515     A.U. after   12 cycles
 SCF Done:  E(RB3LYP) =  -419.148909236     A.U. after   11 cycles
 SCF Done:  E(RB3LYP) =  -419.150389012     A.U. after   10 cycles
 SCF Done:  E(RB3LYP) =  -419.150789133     A.U. after   10 cycles
 SCF Done:  E(RB3LYP) =  -419.150895611     A.U. after   10 cycles
 SCF Done:  E(RB3LYP) =  -419.150918601     A.U. after    9 cycles
 SCF Done:  E(RB3LYP) =  -419.150925778     A.U. after    9 cycles
 SCF Done:  E(RB3LYP) =  -419.150927571     A.U. after    7 cycles
 SCF Done:  E(RB3LYP) =  -419.150928002     A.U. after    7 cycles
 SCF Done:  E(RB3LYP) =  -419.150928057     A.U. after    6 cycles
 Optimization completed.
    -- Stationary point found.
 Normal termination of Gaussian 16 at Tue Jun  1 08:33:25 2021.

 ----------------------------------------------------------------------
 #N Geom=AllCheck Guess=TCheck SCRF=Check GenChk RB3LYP/6-31G(2df,p) Fr
 eq
 ----------------------------------------------------------------------

 Structure from the checkpoint file:  "CCpNpNCCNpCpN.chk"
 -------------------
 Title Card Required
 -------------------
 Charge =  0 Multiplicity = 1

                         Standard orientation:
 ---------------------------------------------------------------------
 Center     Atomic      Atomic             Coordinates (Angstroms)
 Number     Number       Type             X           Y           Z
 ---------------------------------------------------------------------
      1          6           0       -3.630974   -0.866704   -0.030085
      2          6           0       -2.461082    0.087315   -0.299825
      3          7           0       -2.540051    1.361631    0.417343
      4          7           0       -1.218669   -0.560760    0.099665
      5          6           0       -0.006091    0.083570   -0.399885
      6          6           0        1.223914   -0.530702    0.272202
      7          7           0        2.487440   -0.092821   -0.318015
      8          6           0        2.747904    1.326495   -0.130739
      9          7           0        3.604552   -0.817770    0.203957
     10          1           0       -4.582173   -0.383283   -0.271769
     11          1           0       -3.644036   -1.155604    1.026492
     12          1           0       -3.557827   -1.778879   -0.634681
     13          1           0       -2.465269    0.348554   -1.375893
     14          1           0       -2.639116    1.171672    1.411888
     15          1           0       -3.365154    1.875348    0.122807
     16          1           0       -1.238557   -1.531518   -0.194665
     17          1           0       -0.092129    1.145484   -0.158944
     18          1           0        0.109407    0.003286   -1.495587
     19          1           0        1.180280   -1.621834    0.155677
     20          1           0        1.185665   -0.326440    1.360938
     21          1           0        1.979385    1.918464   -0.634182
     22          1           0        3.719221    1.562478   -0.568135
     23          1           0        2.765559    1.623088    0.936051
     24          1           0        3.565289   -1.753683   -0.191055
     25          1           0        3.504528   -0.928932    1.220415
 ---------------------------------------------------------------------

 SCF Done:  E(RB3LYP) =  -419.150928057     A.U. after    1 cycles

 The electronic state is 1-A.
 Alpha  occ. eigenvalues --  -14.33522 -14.32680 -14.30878 -14.30484 -10.23303
 Alpha  occ. eigenvalues --  -10.19669 -10.19289 -10.18714 -10.17557  -0.96028
 Alpha  occ. eigenvalues --   -0.92126  -0.84879  -0.78775  -0.73568  -0.70339
 Alpha  occ. eigenvalues --   -0.63804  -0.59217  -0.57740  -0.51186  -0.49411
 Alpha  occ. eigenvalues --   -0.48601  -0.45559  -0.44442  -0.43708  -0.42095
 Alpha  occ. eigenvalues --   -0.41330  -0.39243  -0.38358  -0.37447  -0.36947
 Alpha  occ. eigenvalues --   -0.35614  -0.34349  -0.33331  -0.24722  -0.23702
 Alpha  occ. eigenvalues --   -0.22415  -0.21098
 Alpha virt. eigenvalues --    0.07413   0.08277   0.10877   0.12348   0.12715
 Alpha virt. eigenvalues --    0.14008   0.14418   0.15044   0.15546   0.16646
 Alpha virt. eigenvalues --    0.16985   0.17879   0.18117   0.18682   0.19714

 Mulliken charges:
               1
     1  C   -0.405823
     2  C    0.088997
     3  N   -0.485221
     4  N   -0.293043
     5  C   -0.150649
     6  C   -0.126066
     7  N   -0.069556
     8  C   -0.289414
     9  N   -0.465116
    10  H    0.109730
    11  H    0.118876
    12  H    0.108166
    13  H    0.058986
    14  H    0.222077
    15  H    0.221020
    16  H    0.209621
    17  H    0.131251
    18  H    0.083977
    19  H    0.079162
    20  H    0.076615
    21  H    0.121908
    22  H    0.128455
    23  H    0.083903
    24  H    0.235426
    25  H    0.206720
 Sum of Mulliken charges =  -0.00000

 Dipole moment (field-independent basis, Debye):
    X=             -2.3306    Y=             -1.1415    Z=              0.4590  Tot=              2.6354
 Quadrupole moment (field-independent basis, Debye-Ang):
   XX=            -58.2164   YY=            -54.3393   ZZ=            -57.5444
   XY=             -2.8133   XZ=              2.8075   YZ=              0.3581

  Exact polarizability: 106.410  -1.930  85.078   1.647  -0.200  74.749
 Approx polarizability: 122.023  -4.820 121.642   1.696  -0.091 116.449

                      1                      2                      3
                      A                      A                      A
 Frequencies --     41.2443                53.4370                98.8047
 Red. masses --      2.7979                 3.3921                 3.3404
 Frc consts  --      0.0028                 0.0057                 0.0192
 IR Inten    --      0.5975                 0.5801                 0.4008

                      4                      5                      6
                      A                      A                      A
 Frequencies --    128.8623               164.8031               236.3040
 Red. masses --      2.0407                 2.5465                 1.4046
 Frc consts  --      0.0200                 0.0408                 0.0462
 IR Inten    --      0.2634                 3.7118                 2.1288

                      7                      8                      9
                      A                      A                      A
 Frequencies --    246.8108               263.9913               272.7801
 Red. masses --      1.2572                 1.3875                 2.5733
 Frc consts  --      0.0451                 0.0570                 0.1128
 IR Inten    --      3.4520                16.8338                 1.6270

                     10                     11                     12
                      A                      A                      A
 Frequencies --    277.1418               307.3681               385.3471
 Red. masses --      1.3732                 1.1645                 2.0895
 Frc consts  --      0.0621                 0.0648                 0.1828
 IR Inten    --     27.0362                32.1889                 1.6830

                     13                     14                     15
                      A                      A                      A
 Frequencies --    415.2275               444.5377               491.8720
 Red. masses --      2.2405                 2.8797                 2.5054
 Frc consts  --      0.2276                 0.3353                 0.3571
 IR Inten    --      1.3969                 1.0681                14.2662

                     16                     17                     18
                      A                      A                      A
 Frequencies --    531.5993               543.6492               756.1862
 Red. masses --      2.6576                 2.5784                 1.3556
 Frc consts  --      0.4425                 0.4490                 0.4567
 IR Inten    --      3.0544                 1.7866                75.2207

                     19                     20                     21
                      A                      A                      A
 Frequencies --    822.6664               839.6993               855.9450
 Red. masses --      1.4694                 2.0631                 2.8714
 Frc consts  --      0.5859                 0.8571                 1.2395
 IR Inten    --      7.1515                43.2708                40.5852

                     22                     23                     24
                      A                      A                      A
 Frequencies --    900.0640               955.1763               967.2902
 Red. masses --      1.3460                 1.7479                 1.8584
 Frc consts  --      0.6425                 0.9396                 1.0245
 IR Inten    --     63.8143                33.3141                44.3063

                     25                     26                     27
                      A                      A                      A
 Frequencies --   1028.2985              1050.6099              1065.8864
 Red. masses --      1.6011                 3.1439                 1.8676
 Frc consts  --      0.9975                 2.0446                 1.2501
 IR Inten    --      5.5051                 5.8104                71.0693

                     28                     29                     30
                      A                      A                      A
 Frequencies --   1091.2724              1104.8141              1133.3829
 Red. masses --      2.4287                 1.7479                 1.6433
 Frc consts  --      1.7041                 1.2570                 1.2437
 IR Inten    --      9.2982                 5.7074                 2.0824

                     31                     32                     33
                      A                      A                      A
 Frequencies --   1160.2287              1192.3053              1223.3893
 Red. masses --      1.6197                 2.1826                 1.4634
 Frc consts  --      1.2846                 1.8281                 1.2905
 IR Inten    --      6.1443               101.3811                18.9986

                     34                     35                     36
                      A                      A                      A
 Frequencies --   1235.1819              1252.7631              1271.6458
 Red. masses --      2.7013                 1.9034                 1.4662
 Frc consts  --      2.4282                 1.7600                 1.3970
 IR Inten    --      1.9232                 3.0506                15.6150

                     37                     38                     39
                      A                      A                      A
 Frequencies --   1309.2429              1331.7578              1356.3278
 Red. masses --      1.1126                 1.2869                 1.3776
 Frc consts  --      1.1237                 1.3448                 1.4932
 IR Inten    --      2.4631                23.8097                17.0154

                     40                     41                     42
                      A                      A                      A
 Frequencies --   1372.5004              1400.3005              1416.7936
 Red. masses --      1.3523                 1.2810                 1.3859
 Frc consts  --      1.5009                 1.4800                 1.6391
 IR Inten    --      6.7677                 7.0679                10.8146

                     43                     44                     45
                      A                      A                      A
 Frequencies --   1429.3268              1449.4048              1478.6159
 Red. masses --      1.3358                 1.1932                 1.1060
 Frc consts  --      1.6079                 1.4768                 1.4246
 IR Inten    --     34.0281                 0.4119                12.0596

                     46                     47                     48
                      A                      A                      A
 Frequencies --   1484.5518              1493.0843              1497.7946
 Red. masses --      1.0605                 1.0732                 1.0795
 Frc consts  --      1.3771                 1.4096                 1.4269
 IR Inten    --      8.2673                 1.9513                 2.4365

                     49                     50                     51
                      A                      A                      A
 Frequencies --   1503.6600              1508.4617              1523.1708
 Red. masses --      1.0714                 1.1631                 1.0852
 Frc consts  --      1.4272                 1.5594                 1.4834
 IR Inten    --      6.5182                15.0870                 1.6692

                     52                     53                     54
                      A                      A                      A
 Frequencies --   1636.9500              1666.8857              2907.5908
 Red. masses --      1.1065                 1.0835                 1.0812
 Frc consts  --      1.7470                 1.7738                 5.3854
 IR Inten    --     27.6526                15.7454                76.8170

                     55                     56                     57
                      A                      A                      A
 Frequencies --   2907.9544              2923.3934              2946.0491
 Red. masses --      1.0708                 1.0620                 1.0720
 Frc consts  --      5.3349                 5.3477                 5.4818
 IR Inten    --     18.6623                80.8679                96.4381

                     58                     59                     60
                      A                      A                      A
 Frequencies --   3022.6729              3024.0458              3084.3650
 Red. masses --      1.0372                 1.0866                 1.0711
 Frc consts  --      5.5832                 5.8545                 6.0035
 IR Inten    --     16.3883                38.4216                25.1969

                     61                     62                     63
                      A                      A                      A
 Frequencies --   3090.8180              3105.2868              3110.8467
 Red. masses --      1.0994                 1.0867                 1.1018
 Frc consts  --      6.1880                 6.1741                 6.2824
 IR Inten    --     31.5385                19.2230                27.4897

                     64                     65                     66
                      A                      A                      A
 Frequencies --   3138.5689              3333.7236              3478.0950
 Red. masses --      1.1024                 1.0582                 1.0491
 Frc consts  --      6.3979                 6.9292                 7.4774
 IR Inten    --     19.2617                28.1793                 0.4322

                     67                     68                     69
                      A                      A                      A
 Frequencies --   3520.8402              3522.9984              3569.2389
 Red. masses --      1.0812                 1.0736                 1.0919
 Frc consts  --      7.8970                 7.8508                 8.1958
 IR Inten    --      0.3363                 0.2240                 0.2645

 - Thermochemistry -
 -------------------
 Temperature   298.150 Kelvin.  Pressure   1.00000 Atm.
 Atom     1 has atomic number  6 and mass  12.00000

 Molecular mass:   132.13750 amu.
 Principal axes and moments of inertia in atomic units:
                           1         2         3
     Eigenvalues --   442.638673098.598253387.74214
           X            0.99996   0.00820   0.00441
           Y           -0.00818   0.99995  -0.00601
           Z           -0.00446   0.00597   0.99997
 This molecule is an asymmetric top.
 Rotational symmetry number  1.
 Warning -- assumption of classical behavior for rotation
           may cause significant error
 Rotational temperatures (Kelvin)      0.19568     0.02795     0.02557
 Rotational constants (GHZ):           4.07723     0.58244     0.53273
 Zero-point vibrational energy     600261.6 (Joules/Mol)
                                  143.46597 (Kcal/Mol)
 Warning -- explicit consideration of  17 degrees of freedom as
           vibrations may cause significant error
 Vibrational temperatures:     59.34    76.88   142.16   185.40   237.11
          (Kelvin)            339.99   355.11   379.82   392.47   398.75
                              442.23   554.43   597.42   639.59   707.69
                              764.85   782.19  1087.98  1183.63  1208.14
                             1231.51  1294.99  1374.29  1391.71  1479.49
                             1511.59  1533.57  1570.10  1589.58  1630.69
                             1669.31  1715.46  1760.18  1777.15  1802.45
                             1829.61  1883.71  1916.10  1951.45  1974.72
                             2014.72  2038.45  2056.48  2085.37  2127.40
                             2135.94  2148.22  2154.99  2163.43  2170.34
                             2191.50  2355.21  2398.28  4183.37  4183.90
                             4206.11  4238.71  4348.95  4350.93  4437.71
                             4447.00  4467.82  4475.81  4515.70  4796.48
                             5004.20  5065.70  5068.81  5135.34

 Zero-point correction=                           0.228628 (Hartree/Particle)
 Thermal correction to Energy=                    0.240266
 Thermal correction to Enthalpy=                  0.241211
 Thermal correction to Gibbs Free Energy=         0.191036
 Sum of electronic and zero-point Energies=           -418.922300
 Sum of electronic and thermal Energies=              -418.910662
 Sum of electronic and thermal Enthalpies=            -418.909717
 Sum of electronic and thermal Free Energies=         -418.959892

                     E (Thermal)             CV                S
                      KCal/Mol        Cal/Mol-Kelvin    Cal/Mol-Kelvin
 Total                  150.769             42.290            105.602
 Electronic               0.000              0.000              0.000
 Translational            0.889              2.981             40.549
 Rotational               0.889              2.981             29.920
 Vibrational            148.992             36.328             35.133
 Vibration     1          0.594              1.981              5.198
 Vibration     2          0.596              1.976              4.686
 Vibration     3          0.604              1.950              3.478
 Vibration     4          0.611              1.924              2.963
 Vibration     5          0.623              1.886              2.494
 Vibration     6          0.655              1.785              1.831
 Vibration     7          0.661              1.768              1.753
 Vibration     8          0.671              1.739              1.635
 Vibration     9          0.676              1.724              1.579
 Vibration    10          0.678              1.716              1.551
 Vibration    11          0.697              1.660              1.376
 Vibration    12          0.754              1.501              1.018
 Vibration    13          0.779              1.437              0.908
 Vibration    14          0.804              1.373              0.812
 Vibration    15          0.848              1.268              0.679
 Vibration    16          0.887              1.180              0.584
 Vibration    17          0.899              1.154              0.557

                           ! Non-Optimized Parameters !
 Normal termination of Gaussian 16 at Tue Jun  1 09:07:48 2021.
