 Gaussian 16, Revision A.03,
 Gaussian 16:  ES64L-G16RevA.03 25-Dec-2016

 -----------------------------
 # opt freq b3lyp/6-31g(2df,p)
 -----------------------------

 -------------------
 Title Card Required
 -------------------
 Symbolic Z-matrix:
 Charge =  0 Multiplicity = 1

 SCF Done:  E(RB3LYP) =  -420.561879278     A.U. after   13 cycles
 SCF Done:  E(RB3LYP) =  -420.568504610     A.U. after   12 cycles
 SCF Done:  E(RB3LYP) =  -420.569206410     A.U. after   11 cycles
 SCF Done:  E(RB3LYP) =  -420.569643648     A.U. after   12 cycles
 SCF Done:  E(RB3LYP) =  -420.570503220     A.U. after   11 cycles
 SCF Done:  E(RB3LYP) =  -420.572476433     A.U. after   12 cycles
 SCF Done:  E(RB3LYP) =  -420.574173287     A.U. after   12 cycles
 SCF Done:  E(RB3LYP) =  -420.575506003     A.U. after   11 cycles
 SCF Done:  E(RB3LYP) =  -420.576948027     A.U. after   11 cycles
 SCF Done:  E(RB3LYP) =  -420.577830993     A.U. after   12 cycles
 SCF Done:  E(RB3LYP) =  -420.584657567     A.U. after   10 cycles
 SCF Done:  E(RB3LYP) =  -420.584849623     A.U. after   11 cycles
 SCF Done:  E(RB3LYP) =  -420.584974866     A.U. after   10 cycles
 SCF Done:  E(RB3LYP) =  -420.585014565     A.U. after    9 cycles
 SCF Done:  E(RB3LYP) =  -420.585038583     A.U. after   10 cycles
 SCF Done:  E(RB3LYP) =  -420.585048180     A.U. after    9 cycles
 SCF Done:  E(RB3LYP) =  -420.585055471     A.U. after    9 cycles
 SCF Done:  E(RB3LYP) =  -420.585057723     A.U. after    9 cycles
 SCF Done:  E(RB3LYP) =  -420.585058006     A.U. after    7 cycles
 Optimization completed.
    -- Stationary point found.
 Normal termination of Gaussian 16 at Tue Jun  1 23:21:04 2021.

 ----------------------------------------------------------------------
 #N Geom=AllCheck Guess=TCheck SCRF=Check GenChk RB3LYP/6-31G(2df,p) Fr
 eq
 ----------------------------------------------------------------------

 Structure from the checkpoint file:  "CCpOpCN1CCdNC1.chk"
 -------------------
 Title Card Required
 -------------------
 Charge =  0 Multiplicity = 1

                         Standard orientation:
 ---------------------------------------------------------------------
 Center     Atomic      Atomic             Coordinates (Angstroms)
 Number     Number       Type             X           Y           Z
 ---------------------------------------------------------------------
      1          6           0        3.196509   -0.140940    0.601758
      2          6           0        1.855063    0.317490    0.047664
      3          8           0        1.913375    0.269483   -1.366699
      4          6           0        0.691942   -0.556156    0.540423
      5          7           0       -0.542691   -0.181563   -0.136649
      6          6           0       -1.605992   -1.186322   -0.169393
      7          6           0       -2.833205   -0.315046   -0.098280
      8          7           0       -2.614012    0.907515    0.165846
      9          6           0       -1.173789    1.076904    0.311125
     10          1           0        3.999669    0.487971    0.208992
     11          1           0        3.398848   -1.175067    0.304679
     12          1           0        3.211265   -0.078082    1.694570
     13          1           0        1.673727    1.355196    0.382890
     14          1           0        0.988678    0.225357   -1.651702
     15          1           0        0.603062   -0.489265    1.640836
     16          1           0        0.916947   -1.597932    0.286116
     17          1           0       -1.585410   -1.879661    0.692051
     18          1           0       -1.569351   -1.804163   -1.076556
     19          1           0       -3.842938   -0.697001   -0.234911
     20          1           0       -0.949382    1.306668    1.368535
     21          1           0       -0.838365    1.932863   -0.286069
 ---------------------------------------------------------------------

 SCF Done:  E(RB3LYP) =  -420.585058006     A.U. after    1 cycles

 The electronic state is 1-A.
 Alpha  occ. eigenvalues --  -19.11936 -14.33536 -14.33251 -10.23763 -10.23304
 Alpha  occ. eigenvalues --  -10.22794 -10.22622 -10.21247 -10.17223  -1.00900
 Alpha  occ. eigenvalues --   -0.97888  -0.88206  -0.76463  -0.74609  -0.69409
 Alpha  occ. eigenvalues --   -0.61488  -0.58634  -0.57182  -0.50776  -0.50230
 Alpha  occ. eigenvalues --   -0.49396  -0.44982  -0.43532  -0.42804  -0.42221
 Alpha  occ. eigenvalues --   -0.40644  -0.38198  -0.37882  -0.37180  -0.35325
 Alpha  occ. eigenvalues --   -0.31894  -0.30626  -0.27439  -0.25713  -0.22805
 Alpha virt. eigenvalues --   -0.00813   0.07797   0.10302   0.11196   0.12201
 Alpha virt. eigenvalues --    0.12572   0.13334   0.14662   0.14855   0.16167
 Alpha virt. eigenvalues --    0.17733   0.17891   0.18525   0.19221   0.20076

 Mulliken charges:
               1
     1  C   -0.388857
     2  C    0.149740
     3  O   -0.441879
     4  C   -0.170886
     5  N   -0.101193
     6  C   -0.234066
     7  C    0.016322
     8  N   -0.173773
     9  C   -0.114485
    10  H    0.127495
    11  H    0.118875
    12  H    0.109086
    13  H    0.062799
    14  H    0.277836
    15  H    0.081486
    16  H    0.106899
    17  H    0.106101
    18  H    0.121081
    19  H    0.120834
    20  H    0.103094
    21  H    0.123488
 Sum of Mulliken charges =  -0.00000

 Dipole moment (field-independent basis, Debye):
    X=             -0.7552    Y=             -1.8506    Z=              1.2536  Tot=              2.3594
 Quadrupole moment (field-independent basis, Debye-Ang):
   XX=            -59.9721   YY=            -54.2052   ZZ=            -56.0979
   XY=              5.6283   XZ=              5.0880   YZ=              0.5314

  Exact polarizability:  95.174   4.348  79.156   3.966   3.125  66.733
 Approx polarizability: 114.799   6.436 127.351   3.321   7.033 104.437

                      1                      2                      3
                      A                      A                      A
 Frequencies --     62.7922                73.1436               105.5555
 Red. masses --      3.8230                 3.3503                 2.7259
 Frc consts  --      0.0089                 0.0106                 0.0179
 IR Inten    --      3.2253                 0.7740                 0.3144

                      4                      5                      6
                      A                      A                      A
 Frequencies --    161.2130               222.7434               296.4140
 Red. masses --      3.1360                 1.0494                 3.1278
 Frc consts  --      0.0480                 0.0307                 0.1619
 IR Inten    --      1.0859                 0.1776                 2.8265

                      7                      8                      9
                      A                      A                      A
 Frequencies --    340.1371               365.1687               435.6389
 Red. masses --      3.0319                 2.4088                 2.3004
 Frc consts  --      0.2067                 0.1893                 0.2572
 IR Inten    --      4.3093                 4.2107                 5.8145

                     10                     11                     12
                      A                      A                      A
 Frequencies --    449.9013               500.3817               543.3705
 Red. masses --      2.8472                 1.9912                 1.1585
 Frc consts  --      0.3395                 0.2937                 0.2015
 IR Inten    --     19.0767                 0.9640                60.0617

                     13                     14                     15
                      A                      A                      A
 Frequencies --    690.4357               817.8045               840.7104
 Red. masses --      4.6518                 1.7800                 2.6846
 Frc consts  --      1.3065                 0.7014                 1.1180
 IR Inten    --      3.3131                 0.9760                 6.5434

                     16                     17                     18
                      A                      A                      A
 Frequencies --    853.5422               884.0389               932.8588
 Red. masses --      2.4130                 3.2532                 1.6677
 Frc consts  --      1.0357                 1.4980                 0.8551
 IR Inten    --      9.5955                20.3808                 6.6629

                     19                     20                     21
                      A                      A                      A
 Frequencies --    944.5209               957.3438              1000.1155
 Red. masses --      1.9591                 1.7880                 4.5327
 Frc consts  --      1.0297                 0.9655                 2.6712
 IR Inten    --     11.9786                 7.3208                11.0606

                     22                     23                     24
                      A                      A                      A
 Frequencies --   1053.9785              1072.1236              1073.7009
 Red. masses --      1.8407                 1.9540                 1.9943
 Frc consts  --      1.2048                 1.3233                 1.3546
 IR Inten    --      3.1124                47.0827                12.8731

                     25                     26                     27
                      A                      A                      A
 Frequencies --   1108.5423              1165.6987              1179.6567
 Red. masses --      2.1050                 2.3112                 1.9853
 Frc consts  --      1.5241                 1.8504                 1.6278
 IR Inten    --     26.7965                18.8955                32.5109

                     28                     29                     30
                      A                      A                      A
 Frequencies --   1188.1888              1209.9958              1223.0894
 Red. masses --      1.9892                 2.0905                 1.1402
 Frc consts  --      1.6546                 1.8033                 1.0050
 IR Inten    --     10.0832                31.0448                 1.9159

                     31                     32                     33
                      A                      A                      A
 Frequencies --   1286.5768              1313.2254              1321.7497
 Red. masses --      1.2724                 1.1088                 1.2136
 Frc consts  --      1.2409                 1.1266                 1.2492
 IR Inten    --     32.9835                48.9475                 6.6358

                     34                     35                     36
                      A                      A                      A
 Frequencies --   1336.6112              1370.9931              1385.8833
 Red. masses --      1.5069                 1.4062                 1.3319
 Frc consts  --      1.5861                 1.5573                 1.5073
 IR Inten    --     11.2067                48.1653                23.4642

                     37                     38                     39
                      A                      A                      A
 Frequencies --   1391.5464              1409.9387              1451.0056
 Red. masses --      1.3761                 1.3069                 1.5532
 Frc consts  --      1.5700                 1.5307                 1.9268
 IR Inten    --      5.4725                 7.7075                45.0497

                     40                     41                     42
                      A                      A                      A
 Frequencies --   1480.0878              1487.6423              1501.1058
 Red. masses --      1.0971                 1.0878                 1.0560
 Frc consts  --      1.4161                 1.4185                 1.4020
 IR Inten    --     10.4221                 5.2124                 0.8095

                     43                     44                     45
                      A                      A                      A
 Frequencies --   1504.0191              1520.3899              1715.6042
 Red. masses --      1.0826                 1.1017                 8.0325
 Frc consts  --      1.4429                 1.5004                13.9295
 IR Inten    --      2.2166                 9.3368                22.8739

                     46                     47                     48
                      A                      A                      A
 Frequencies --   2924.5595              2930.5959              2934.8845
 Red. masses --      1.0767                 1.0744                 1.0722
 Frc consts  --      5.4256                 5.4367                 5.4414
 IR Inten    --     24.7866                63.1242                35.8346

                     49                     50                     51
                      A                      A                      A
 Frequencies --   2945.4066              3020.9037              3038.1779
 Red. masses --      1.0744                 1.0863                 1.0354
 Frc consts  --      5.4915                 5.8407                 5.6313
 IR Inten    --     96.4706                32.2175                17.5942

                     52                     53                     54
                      A                      A                      A
 Frequencies --   3043.4964              3062.7649              3110.1045
 Red. masses --      1.0884                 1.0903                 1.1017
 Frc consts  --      5.9400                 6.0258                 6.2785
 IR Inten    --     28.7240                22.5888                28.9524

                     55                     56                     57
                      A                      A                      A
 Frequencies --   3120.3580              3158.8403              3711.1817
 Red. masses --      1.1012                 1.0938                 1.0647
 Frc consts  --      6.3174                 6.4302                 8.6401
 IR Inten    --     19.9807                25.1586                75.0920

 - Thermochemistry -
 -------------------
 Temperature   298.150 Kelvin.  Pressure   1.00000 Atm.
 Atom     1 has atomic number  6 and mass  12.00000

 Molecular mass:   128.09496 amu.
 Principal axes and moments of inertia in atomic units:
                           1         2         3
     Eigenvalues --   434.271142101.921892163.46999
           X            0.99983   0.00788   0.01695
           Y           -0.00840   0.99948   0.03112
           Z           -0.01670  -0.03126   0.99937
 This molecule is an asymmetric top.
 Rotational symmetry number  1.
 Warning -- assumption of classical behavior for rotation
           may cause significant error
 Rotational temperatures (Kelvin)      0.19945     0.04121     0.04003
 Rotational constants (GHZ):           4.15579     0.85861     0.83419
 Zero-point vibrational energy     479884.7 (Joules/Mol)
                                  114.69520 (Kcal/Mol)
 Warning -- explicit consideration of  12 degrees of freedom as
           vibrations may cause significant error
 Vibrational temperatures:     90.34   105.24   151.87   231.95   320.48
          (Kelvin)            426.47   489.38   525.40   626.79   647.31
                              719.94   781.79   993.38  1176.64  1209.59
                             1228.06  1271.93  1342.18  1358.95  1377.40
                             1438.94  1516.44  1542.55  1544.82  1594.95
                             1677.18  1697.26  1709.54  1740.91  1759.75
                             1851.10  1889.44  1901.70  1923.09  1972.55
                             1993.98  2002.12  2028.59  2087.67  2129.52
                             2140.39  2159.76  2163.95  2187.50  2468.37
                             4207.79  4216.47  4222.64  4237.78  4346.41
                             4371.26  4378.91  4406.64  4474.75  4489.50
                             4544.87  5339.56

 Zero-point correction=                           0.182778 (Hartree/Particle)
 Thermal correction to Energy=                    0.192035
 Thermal correction to Enthalpy=                  0.192979
 Thermal correction to Gibbs Free Energy=         0.148044
 Sum of electronic and zero-point Energies=           -420.402280
 Sum of electronic and thermal Energies=              -420.393023
 Sum of electronic and thermal Enthalpies=            -420.392079
 Sum of electronic and thermal Free Energies=         -420.437014

                     E (Thermal)             CV                S
                      KCal/Mol        Cal/Mol-Kelvin    Cal/Mol-Kelvin
 Total                  120.504             34.122             94.575
 Electronic               0.000              0.000              0.000
 Translational            0.889              2.981             40.456
 Rotational               0.889              2.981             29.070
 Vibrational            118.726             28.160             25.049
 Vibration     1          0.597              1.972              4.367
 Vibration     2          0.599              1.967              4.067
 Vibration     3          0.605              1.945              3.349
 Vibration     4          0.622              1.890              2.536
 Vibration     5          0.648              1.806              1.937
 Vibration     6          0.690              1.680              1.437
 Vibration     7          0.720              1.595              1.212
 Vibration     8          0.738              1.544              1.100
 Vibration     9          0.796              1.393              0.840
 Vibration    10          0.809              1.361              0.796
 Vibration    11          0.856              1.249              0.657
 Vibration    12          0.898              1.154              0.558

 Optimization completed.
    -- Stationary point found.
 Normal termination of Gaussian 16 at Tue Jun  1 23:55:29 2021.
