 Gaussian 16, Revision A.03,
 Gaussian 16:  ES64L-G16RevA.03 25-Dec-2016

 -----------------------------
 # opt freq b3lyp/6-31g(2df,p)
 -----------------------------

 -------------------
 Title Card Required
 -------------------
 Symbolic Z-matrix:
 Charge =  0 Multiplicity = 1

 SCF Done:  E(RB3LYP) =  -463.235602287     A.U. after   13 cycles
 SCF Done:  E(RB3LYP) =  -463.259522485     A.U. after   12 cycles
 SCF Done:  E(RB3LYP) =  -463.261231640     A.U. after   12 cycles
 SCF Done:  E(RB3LYP) =  -463.255557076     A.U. after   12 cycles
 SCF Done:  E(RB3LYP) =  -463.261590489     A.U. after   11 cycles
 SCF Done:  E(RB3LYP) =  -463.259426505     A.U. after   13 cycles
 SCF Done:  E(RB3LYP) =  -463.261657315     A.U. after    9 cycles
 SCF Done:  E(RB3LYP) =  -463.261667900     A.U. after    9 cycles
 SCF Done:  E(RB3LYP) =  -463.261670252     A.U. after    9 cycles
 SCF Done:  E(RB3LYP) =  -463.261670575     A.U. after    7 cycles
 SCF Done:  E(RB3LYP) =  -463.261673347     A.U. after    9 cycles
 SCF Done:  E(RB3LYP) =  -463.261673920     A.U. after    8 cycles
 SCF Done:  E(RB3LYP) =  -463.261674550     A.U. after    8 cycles
 SCF Done:  E(RB3LYP) =  -463.261677105     A.U. after    9 cycles
 SCF Done:  E(RB3LYP) =  -463.261678472     A.U. after    8 cycles
 SCF Done:  E(RB3LYP) =  -463.261682733     A.U. after    9 cycles
 SCF Done:  E(RB3LYP) =  -463.261679096     A.U. after    9 cycles
 SCF Done:  E(RB3LYP) =  -463.261681973     A.U. after    8 cycles
 SCF Done:  E(RB3LYP) =  -463.261681827     A.U. after    6 cycles
 Optimization completed.
    -- Stationary point found.
 Normal termination of Gaussian 16 at Mon May 31 22:48:03 2021.

 ----------------------------------------------------------------------
 #N Geom=AllCheck Guess=TCheck SCRF=Check GenChk RB3LYP/6-31G(2df,p) Fr
 eq
 ----------------------------------------------------------------------

 Structure from the checkpoint file:  "CCtCCCpCpNCCNC.chk"
 -------------------
 Title Card Required
 -------------------
 Charge =  0 Multiplicity = 1

                         Standard orientation:
 ---------------------------------------------------------------------
 Center     Atomic      Atomic             Coordinates (Angstroms)
 Number     Number       Type             X           Y           Z
 ---------------------------------------------------------------------
      1          6           0       -5.659379    0.011317   -0.606620
      2          6           0       -4.294888   -0.281027   -0.189617
      3          6           0       -3.169835   -0.531261    0.160173
      4          6           0       -1.802037   -0.825623    0.569575
      5          6           0       -0.751692    0.156730    0.000680
      6          6           0       -0.984379    1.574701    0.527298
      7          7           0        0.570690   -0.340933    0.389391
      8          6           0        1.699728    0.320103   -0.258257
      9          6           0        3.010828   -0.365169    0.123088
     10          7           0        4.146409    0.299406   -0.502055
     11          6           0        5.422957   -0.326212   -0.186633
     12          1           0       -5.730915    0.118109   -1.694801
     13          1           0       -6.024404    0.942289   -0.158674
     14          1           0       -6.345929   -0.788988   -0.308412
     15          1           0       -1.541163   -1.844090    0.248022
     16          1           0       -1.719440   -0.821831    1.664233
     17          1           0       -0.873725    0.173915   -1.098786
     18          1           0       -0.815104    1.606910    1.608895
     19          1           0       -2.011636    1.885798    0.320978
     20          1           0       -0.314904    2.298153    0.054400
     21          1           0        0.615782   -1.331693    0.165742
     22          1           0        1.736693    1.363388    0.079644
     23          1           0        1.617364    0.348570   -1.359725
     24          1           0        2.995518   -1.405113   -0.235079
     25          1           0        3.080492   -0.417749    1.225386
     26          1           0        4.167716    1.269398   -0.202527
     27          1           0        5.454138   -1.331691   -0.622273
     28          1           0        5.624699   -0.429178    0.895343
     29          1           0        6.237306    0.253142   -0.631845
 ---------------------------------------------------------------------

 SCF Done:  E(RB3LYP) =  -463.261681827     A.U. after    1 cycles

 The electronic state is 1-A.
 Alpha  occ. eigenvalues --  -14.30967 -14.30864 -10.21042 -10.19968 -10.19948
 Alpha  occ. eigenvalues --  -10.19859 -10.19779 -10.19674 -10.16706 -10.16511
 Alpha  occ. eigenvalues --  -10.16324  -0.90873  -0.89048  -0.79133  -0.76119
 Alpha  occ. eigenvalues --   -0.72186  -0.70456  -0.66613  -0.64152  -0.60035
 Alpha  occ. eigenvalues --   -0.57080  -0.49316  -0.48442  -0.48269  -0.45444
 Alpha  occ. eigenvalues --   -0.45222  -0.43271  -0.42361  -0.42104  -0.41922
 Alpha  occ. eigenvalues --   -0.41297  -0.39900  -0.38816  -0.36911  -0.36598
 Alpha  occ. eigenvalues --   -0.35436  -0.34409  -0.33315  -0.32910  -0.24367
 Alpha  occ. eigenvalues --   -0.24296  -0.22433  -0.21486
 Alpha virt. eigenvalues --    0.05802   0.06589   0.08685   0.09210   0.10781
 Alpha virt. eigenvalues --    0.11369   0.12937   0.13954   0.14064   0.15073
 Alpha virt. eigenvalues --    0.15909   0.16906   0.17160   0.17835   0.18348

 Mulliken charges:
               1
     1  C   -0.497784
     2  C    0.081784
     3  C    0.051204
     4  C   -0.374757
     5  C    0.076883
     6  C   -0.380228
     7  N   -0.306354
     8  C   -0.145502
     9  C   -0.138169
    10  N   -0.279227
    11  C   -0.307857
    12  H    0.145653
    13  H    0.145690
    14  H    0.146628
    15  H    0.113114
    16  H    0.131851
    17  H    0.062281
    18  H    0.116689
    19  H    0.126954
    20  H    0.112661
    21  H    0.208682
    22  H    0.098892
    23  H    0.088348
    24  H    0.093593
    25  H    0.086372
    26  H    0.214437
    27  H    0.120244
    28  H    0.092059
    29  H    0.115859
 Sum of Mulliken charges =  -0.00000

 Dipole moment (field-independent basis, Debye):
    X=             -0.0555    Y=              0.0565    Z=             -0.0368  Tot=              0.0874
 Quadrupole moment (field-independent basis, Debye-Ang):
   XX=            -60.4183   YY=            -66.5645   ZZ=            -72.5618
   XY=             -0.0393   XZ=              4.2528   YZ=              0.7478

  Exact polarizability: 166.586  -4.529  94.903   7.233  -1.790  88.067
 Approx polarizability: 193.528  -9.575 141.423  14.075  -4.530 136.418

 ******    1 imaginary frequencies (negative Signs) ******

                      1                      2                      3
                      A                      A                      A
 Frequencies --     -7.5310                30.1019                48.3252
 Red. masses --      1.0231                 3.6121                 2.0346
 Frc consts  --      0.0000                 0.0019                 0.0028
 IR Inten    --      0.0019                 0.2960                 1.2376

                      4                      5                      6
                      A                      A                      A
 Frequencies --     58.7959                75.7496               111.7674
 Red. masses --      2.7809                 3.0567                 3.5623
 Frc consts  --      0.0057                 0.0103                 0.0262
 IR Inten    --      0.0871                 0.8108                 0.3191

                      7                      8                      9
                      A                      A                      A
 Frequencies --    127.5659               135.5477               210.1964
 Red. masses --      2.4365                 1.8742                 2.2339
 Frc consts  --      0.0234                 0.0203                 0.0582
 IR Inten    --      0.4731                 3.3497                 5.4148

                     10                     11                     12
                      A                      A                      A
 Frequencies --    233.1735               248.5105               252.3355
 Red. masses --      2.9366                 1.6738                 1.9226
 Frc consts  --      0.0941                 0.0609                 0.0721
 IR Inten    --      2.5674                 1.4532                 2.1418

                     13                     14                     15
                      A                      A                      A
 Frequencies --    256.1919               283.5031               384.9577
 Red. masses --      1.3882                 3.0413                 2.7584
 Frc consts  --      0.0537                 0.1440                 0.2408
 IR Inten    --      3.7649                 1.8915                 0.2404

                     16                     17                     18
                      A                      A                      A
 Frequencies --    390.0442               405.1385               462.8149
 Red. masses --      3.4798                 3.4696                 2.9986
 Frc consts  --      0.3119                 0.3355                 0.3784
 IR Inten    --      0.2775                 0.7678                 6.0626

                     19                     20                     21
                      A                      A                      A
 Frequencies --    493.3336               551.4699               774.6596
 Red. masses --      3.2244                 3.2607                 2.1949
 Frc consts  --      0.4624                 0.5843                 0.7760
 IR Inten    --      0.4448                12.8759                51.2044

                     22                     23                     24
                      A                      A                      A
 Frequencies --    781.6074               796.2693               831.1513
 Red. masses --      1.2401                 1.6180                 1.2639
 Frc consts  --      0.4463                 0.6044                 0.5144
 IR Inten    --     35.2338                36.2102                18.3344

                     25                     26                     27
                      A                      A                      A
 Frequencies --    845.8957               898.3377               950.4202
 Red. masses --      2.4186                 1.3777                 2.1186
 Frc consts  --      1.0196                 0.6551                 1.1275
 IR Inten    --      4.7628                 0.8118                 1.4626

                     28                     29                     30
                      A                      A                      A
 Frequencies --    993.6740              1042.7864              1053.6213
 Red. masses --      2.0432                 2.6580                 1.4007
 Frc consts  --      1.1887                 1.7030                 0.9161
 IR Inten    --      3.8194                 0.8018                 1.3609

                     31                     32                     33
                      A                      A                      A
 Frequencies --   1054.4844              1080.5773              1093.9920
 Red. masses --      1.3928                 1.7762                 1.9029
 Frc consts  --      0.9124                 1.2220                 1.3418
 IR Inten    --      1.0601                 2.2655                 7.0272

                     34                     35                     36
                      A                      A                      A
 Frequencies --   1109.8696              1127.2213              1149.5622
 Red. masses --      1.5941                 1.8666                 2.3189
 Frc consts  --      1.1569                 1.3974                 1.8055
 IR Inten    --      5.8800                 6.2899                13.3469

                     37                     38                     39
                      A                      A                      A
 Frequencies --   1162.4525              1172.2416              1184.4105
 Red. masses --      2.2813                 2.9502                 2.4630
 Frc consts  --      1.8163                 2.3886                 2.0357
 IR Inten    --     22.1666                 0.0330                74.5829

                     40                     41                     42
                      A                      A                      A
 Frequencies --   1217.6206              1244.3164              1263.5379
 Red. masses --      1.7574                 1.3514                 1.4279
 Frc consts  --      1.5351                 1.2328                 1.3432
 IR Inten    --     23.5648                16.3756                18.3626

                     43                     44                     45
                      A                      A                      A
 Frequencies --   1303.8323              1308.4902              1335.4106
 Red. masses --      1.2781                 1.1023                 1.3320
 Frc consts  --      1.2802                 1.1119                 1.3996
 IR Inten    --     20.1452                 0.9279                 2.1378

                     46                     47                     48
                      A                      A                      A
 Frequencies --   1369.9576              1383.4692              1404.0456
 Red. masses --      1.4122                 1.3443                 1.3118
 Frc consts  --      1.5615                 1.5159                 1.5236
 IR Inten    --      4.7395                10.4007                20.3109

                     49                     50                     51
                      A                      A                      A
 Frequencies --   1415.4546              1419.3363              1460.0751
 Red. masses --      1.2529                 1.4417                 1.1776
 Frc consts  --      1.4789                 1.7112                 1.4791
 IR Inten    --     11.4293                 3.0868                 2.4532

                     52                     53                     54
                      A                      A                      A
 Frequencies --   1470.0334              1479.0279              1480.0094
 Red. masses --      1.0934                 1.0397                 1.0399
 Frc consts  --      1.3922                 1.3401                 1.3421
 IR Inten    --      3.4817                 5.4835                 4.9132

                     55                     56                     57
                      A                      A                      A
 Frequencies --   1484.7671              1490.8751              1493.5319
 Red. masses --      1.1614                 1.1014                 1.0703
 Frc consts  --      1.5085                 1.4424                 1.4067
 IR Inten    --     10.4391                 4.4746                 1.7991

                     58                     59                     60
                      A                      A                      A
 Frequencies --   1502.9255              1512.3273              1513.8314
 Red. masses --      1.0553                 1.1384                 1.1340
 Frc consts  --      1.4045                 1.5341                 1.5311
 IR Inten    --      5.0890                 5.4532                16.0490

                     61                     62                     63
                      A                      A                      A
 Frequencies --   1520.2658              1527.7585              2371.9161
 Red. masses --      1.0853                 1.0893                11.8171
 Frc consts  --      1.4779                 1.4980                39.1707
 IR Inten    --     34.9398                 1.0279                 0.2480

                     64                     65                     66
                      A                      A                      A
 Frequencies --   2917.0606              2929.9426              2938.3304
 Red. masses --      1.0810                 1.0700                 1.0613
 Frc consts  --      5.4198                 5.4117                 5.3987
 IR Inten    --     50.7500                 7.2513                76.3504

                     67                     68                     69
                      A                      A                      A
 Frequencies --   2946.2885              3001.6492              3007.6627
 Red. masses --      1.0696                 1.0625                 1.0858
 Frc consts  --      5.4706                 5.6402                 5.7870
 IR Inten    --    142.3131                33.4570                15.8551

                     70                     71                     72
                      A                      A                      A
 Frequencies --   3024.7918              3038.1366              3043.2550
 Red. masses --      1.0348                 1.0558                 1.0937
 Frc consts  --      5.5783                 5.7417                 5.9678
 IR Inten    --     39.1217                 2.2747                 5.9747

                     73                     74                     75
                      A                      A                      A
 Frequencies --   3044.9582              3051.5350              3084.5185
 Red. masses --      1.0721                 1.0737                 1.1002
 Frc consts  --      5.8567                 5.8908                 6.1671
 IR Inten    --     74.0508                41.4281                12.1414

                     76                     77                     78
                      A                      A                      A
 Frequencies --   3084.6019              3100.2923              3112.1277
 Red. masses --      1.1001                 1.1007                 1.1005
 Frc consts  --      6.1669                 6.2332                 6.2801
 IR Inten    --     11.5040                32.4945                27.6017

                     79                     80                     81
                      A                      A                      A
 Frequencies --   3123.6868              3487.7763              3508.1452
 Red. masses --      1.1008                 1.0730                 1.0734
 Frc consts  --      6.3285                 7.6906                 7.7837
 IR Inten    --     21.9828                 1.2951                 0.3313

 - Thermochemistry -
 -------------------
 Temperature   298.150 Kelvin.  Pressure   1.00000 Atm.
 Atom     1 has atomic number  6 and mass  12.00000

 Molecular mass:   154.14700 amu.
 Principal axes and moments of inertia in atomic units:
                           1         2         3
     Eigenvalues --   394.976476513.479096663.33032
           X            0.99998  -0.00536   0.00353
           Y            0.00532   0.99994   0.00993
           Z           -0.00359  -0.00992   0.99994
 This molecule is an asymmetric top.
 Rotational symmetry number  1.
 Rotational temperatures (Kelvin)      0.21929     0.01330     0.01300
 Rotational constants (GHZ):           4.56924     0.27708     0.27085
    1 imaginary frequencies ignored.
 Zero-point vibrational energy     683548.2 (Joules/Mol)
                                  163.37194 (Kcal/Mol)
 Warning -- explicit consideration of  19 degrees of freedom as
           vibrations may cause significant error
 Vibrational temperatures:     43.31    69.53    84.59   108.99   160.81
          (Kelvin)            183.54   195.02   302.43   335.48   357.55
                              363.05   368.60   407.90   553.87   561.19
                              582.90   665.89   709.80   793.44  1114.56
                             1124.56  1145.65  1195.84  1217.06  1292.51
                             1367.44  1429.68  1500.34  1515.93  1517.17
                             1554.71  1574.01  1596.85  1621.82  1653.96
                             1672.51  1686.59  1704.10  1751.88  1790.29
                             1817.95  1875.92  1882.63  1921.36  1971.06
                             1990.50  2020.11  2036.52  2042.11  2100.72
                             2115.05  2127.99  2129.40  2136.25  2145.04
                             2148.86  2162.37  2175.90  2178.07  2187.32
                             2198.10  3412.66  4197.00  4215.53  4227.60
                             4239.05  4318.70  4327.36  4352.00  4371.20
                             4378.57  4381.02  4390.48  4437.93  4438.05
                             4460.63  4477.66  4494.29  5018.13  5047.44

 Zero-point correction=                           0.260350 (Hartree/Particle)
 Thermal correction to Energy=                    0.274087
 Thermal correction to Enthalpy=                  0.275031
 Thermal correction to Gibbs Free Energy=         0.218749
 Sum of electronic and zero-point Energies=           -463.001332
 Sum of electronic and thermal Energies=              -462.987595
 Sum of electronic and thermal Enthalpies=            -462.986651
 Sum of electronic and thermal Free Energies=         -463.042933

                     E (Thermal)             CV                S
                      KCal/Mol        Cal/Mol-Kelvin    Cal/Mol-Kelvin
 Total                  171.992             48.375            118.456
 Electronic               0.000              0.000              0.000
 Translational            0.889              2.981             41.008
 Rotational               0.889              2.981             31.217
 Vibrational            170.215             42.413             46.231
 Vibration     1          0.594              1.984              5.823
 Vibration     2          0.595              1.978              4.885
 Vibration     3          0.596              1.974              4.497
 Vibration     4          0.599              1.965              3.998
 Vibration     5          0.607              1.940              3.238
 Vibration     6          0.611              1.926              2.982
 Vibration     7          0.613              1.918              2.866
 Vibration     8          0.642              1.825              2.042
 Vibration     9          0.654              1.790              1.854
 Vibration    10          0.662              1.765              1.741
 Vibration    11          0.664              1.759              1.714
 Vibration    12          0.666              1.752              1.688
 Vibration    13          0.682              1.704              1.512
 Vibration    14          0.754              1.502              1.020
 Vibration    15          0.758              1.491              1.000
 Vibration    16          0.770              1.459              0.944
 Vibration    17          0.820              1.333              0.758
 Vibration    18          0.849              1.265              0.675
 Vibration    19          0.907              1.136              0.541

                           ! Non-Optimized Parameters !
 Normal termination of Gaussian 16 at Mon May 31 23:40:38 2021.
