 Gaussian 16, Revision A.03,
 Gaussian 16:  ES64L-G16RevA.03 25-Dec-2016

 -----------------------------
 # opt freq b3lyp/6-31g(2df,p)
 -----------------------------

 -------------------
 Title Card Required
 -------------------
 Symbolic Z-matrix:
 Charge =  0 Multiplicity = 1

 SCF Done:  E(RB3LYP) =  -245.931770139     A.U. after   15 cycles
 SCF Done:  E(RB3LYP) =  -245.950257430     A.U. after   15 cycles
 SCF Done:  E(RB3LYP) =  -245.950851999     A.U. after   14 cycles
 SCF Done:  E(RB3LYP) =  -245.949627142     A.U. after   15 cycles
 SCF Done:  E(RB3LYP) =  -245.951354861     A.U. after   14 cycles
 SCF Done:  E(RB3LYP) =  -245.951366761     A.U. after   14 cycles
 SCF Done:  E(RB3LYP) =  -245.951399913     A.U. after   12 cycles
 SCF Done:  E(RB3LYP) =  -245.951400342     A.U. after   10 cycles
 SCF Done:  E(RB3LYP) =  -245.951400419     A.U. after    9 cycles
 SCF Done:  E(RB3LYP) =  -245.951400521     A.U. after   10 cycles
 SCF Done:  E(RB3LYP) =  -245.951400728     A.U. after   11 cycles
 SCF Done:  E(RB3LYP) =  -245.951401053     A.U. after   12 cycles
 SCF Done:  E(RB3LYP) =  -245.951401480     A.U. after   12 cycles
 SCF Done:  E(RB3LYP) =  -245.951401882     A.U. after   12 cycles
 SCF Done:  E(RB3LYP) =  -245.951402261     A.U. after   12 cycles
 SCF Done:  E(RB3LYP) =  -245.951402497     A.U. after   11 cycles
 SCF Done:  E(RB3LYP) =  -245.951402540     A.U. after   11 cycles
 SCF Done:  E(RB3LYP) =  -245.951402551     A.U. after   10 cycles
 Optimization completed.
    -- Stationary point found.
 Normal termination of Gaussian 16 at Mon May 31 20:42:24 2021.

 ----------------------------------------------------------------------
 #N Geom=AllCheck Guess=TCheck SCRF=Check GenChk RB3LYP/6-31G(2df,p) Fr
 eq
 ----------------------------------------------------------------------

 Structure from the checkpoint file:  "CCtCNdO.chk"
 -------------------
 Title Card Required
 -------------------
 Charge =  0 Multiplicity = 1

                         Standard orientation:
 ---------------------------------------------------------------------
 Center     Atomic      Atomic             Coordinates (Angstroms)
 Number     Number       Type             X           Y           Z
 ---------------------------------------------------------------------
      1          6           0        2.487436    0.107156    0.000070
      2          6           0        1.045906   -0.048819   -0.000046
      3          6           0       -0.163184   -0.125182   -0.000194
      4          7           0       -1.484035   -0.486887    0.000092
      5          8           0       -2.306987    0.415567    0.000025
      6          1           0        2.809823    0.672511    0.881712
      7          1           0        2.810145    0.670385   -0.882821
      8          1           0        3.003228   -0.858154    0.001291
 ---------------------------------------------------------------------

 SCF Done:  E(RB3LYP) =  -245.951402551     A.U. after    1 cycles

 The electronic state is 1-A.
 Alpha  occ. eigenvalues --  -19.19415 -14.45651 -10.23315 -10.22969 -10.22054
 Alpha  occ. eigenvalues --   -1.14985  -0.83068  -0.78408  -0.69829  -0.52824
 Alpha  occ. eigenvalues --   -0.48943  -0.46455  -0.46163  -0.44936  -0.44618
 Alpha  occ. eigenvalues --   -0.29917  -0.29002  -0.23037
 Alpha virt. eigenvalues --   -0.10803   0.03016   0.07479   0.08869   0.15349
 Alpha virt. eigenvalues --    0.16769   0.16779   0.22232   0.31836   0.33728
 Alpha virt. eigenvalues --    0.42331   0.47108   0.47594   0.50004   0.52134

 Mulliken charges:
               1
     1  C   -0.513568
     2  C    0.400612
     3  C   -0.079406
     4  N   -0.110736
     5  O   -0.206846
     6  H    0.172491
     7  H    0.172505
     8  H    0.164948
 Sum of Mulliken charges =  -0.00000

 Dipole moment (field-independent basis, Debye):
    X=              4.0713    Y=              0.2316    Z=             -0.0002  Tot=              4.0779
 Quadrupole moment (field-independent basis, Debye-Ang):
   XX=            -26.2978   YY=            -29.2456   ZZ=            -26.9287
   XY=              0.5024   XZ=              0.0004   YZ=              0.0006

  Exact polarizability:  81.220  -0.868  27.821   0.000  -0.000  25.147
 Approx polarizability: 152.087  -6.453  43.142   0.001  -0.000  36.527

                      1                      2                      3
                      A                      A                      A
 Frequencies --     17.5631               143.9338               176.9594
 Red. masses --      1.4495                 5.3444                 4.8298
 Frc consts  --      0.0003                 0.0652                 0.0891
 IR Inten    --      0.0644                 0.2850                 0.0325

                      4                      5                      6
                      A                      A                      A
 Frequencies --    310.3623               421.0548               585.8752
 Red. masses --      4.9564                 4.6698                 7.0522
 Frc consts  --      0.2813                 0.4878                 1.4262
 IR Inten    --      3.3889                 1.7098                 0.9462

                      7                      8                      9
                      A                      A                      A
 Frequencies --    807.3359              1036.1080              1053.6159
 Red. masses --      9.5099                 1.4571                 1.3850
 Frc consts  --      3.6520                 0.9216                 0.9059
 IR Inten    --     28.0361                 3.3811                 1.5007

                     10                     11                     12
                      A                      A                      A
 Frequencies --   1131.9141              1405.2182              1463.5668
 Red. masses --      6.3044                 1.2306                 1.0509
 Frc consts  --      4.7591                 1.4317                 1.3263
 IR Inten    --     33.5613                 3.4154                14.8605

                     13                     14                     15
                      A                      A                      A
 Frequencies --   1470.6572              1543.1390              2288.3782
 Red. masses --      1.0403                13.9217                11.8898
 Frc consts  --      1.3256                19.5323                36.6844
 IR Inten    --      6.5434               194.3637               132.9778

                     16                     17                     18
                      A                      A                      A
 Frequencies --   3030.4351              3093.3110              3102.0232
 Red. masses --      1.0344                 1.0987                 1.1016
 Frc consts  --      5.5968                 6.1938                 6.2456
 IR Inten    --      6.7547                 1.7939                 7.1785

 - Thermochemistry -
 -------------------
 Temperature   298.150 Kelvin.  Pressure   1.00000 Atm.
 Atom     1 has atomic number  6 and mass  12.00000

 Molecular mass:    69.02146 amu.
 Principal axes and moments of inertia in atomic units:
                           1         2         3
     Eigenvalues --    34.44557 818.43497 841.67473
           X            0.99998   0.00565   0.00000
           Y           -0.00565   0.99998   0.00000
           Z           -0.00000  -0.00000   1.00000
 This molecule is an asymmetric top.
 Rotational symmetry number  1.
 Rotational temperatures (Kelvin)      2.51452     0.10583     0.10291
 Rotational constants (GHZ):          52.39400     2.20511     2.14423
 Zero-point vibrational energy     138057.7 (Joules/Mol)
                                   32.99659 (Kcal/Mol)
 Warning -- explicit consideration of   6 degrees of freedom as
           vibrations may cause significant error
 Vibrational temperatures:     25.27   207.09   254.61   446.54   605.80
          (Kelvin)            842.94  1161.58  1490.73  1515.92  1628.57
                             2021.80  2105.75  2115.95  2220.23  3292.47
                             4360.12  4450.58  4463.12

 Zero-point correction=                           0.052583 (Hartree/Particle)
 Thermal correction to Energy=                    0.058620
 Thermal correction to Enthalpy=                  0.059564
 Thermal correction to Gibbs Free Energy=         0.022274
 Sum of electronic and zero-point Energies=           -245.898819
 Sum of electronic and thermal Energies=              -245.892782
 Sum of electronic and thermal Enthalpies=            -245.891838
 Sum of electronic and thermal Free Energies=         -245.929128

                     E (Thermal)             CV                S
                      KCal/Mol        Cal/Mol-Kelvin    Cal/Mol-Kelvin
 Total                   36.785             17.763             78.483
 Electronic               0.000              0.000              0.000
 Translational            0.889              2.981             38.613
 Rotational               0.889              2.981             24.676
 Vibrational             35.007             11.801             15.194
 Vibration     1          0.593              1.986              6.892
 Vibration     2          0.616              1.909              2.751
 Vibration     3          0.628              1.871              2.360
 Vibration     4          0.699              1.654              1.360
 Vibration     5          0.784              1.424              0.888
 Vibration     6          0.943              1.062              0.475

 Optimization completed.
    -- Stationary point found.
 Normal termination of Gaussian 16 at Mon May 31 20:46:54 2021.
