 Gaussian 16, Revision A.03,
 Gaussian 16:  ES64L-G16RevA.03 25-Dec-2016

 -----------------------------
 # opt freq b3lyp/6-31g(2df,p)
 -----------------------------

 -------------------
 Title Card Required
 -------------------
 Symbolic Z-matrix:
 Charge =  0 Multiplicity = 1

 SCF Done:  E(RB3LYP) =  -398.210346188     A.U. after   15 cycles
 SCF Done:  E(RB3LYP) =  -398.241399231     A.U. after   12 cycles
 SCF Done:  E(RB3LYP) =  -398.242938149     A.U. after   12 cycles
 SCF Done:  E(RB3LYP) =  -398.240808819     A.U. after   14 cycles
 SCF Done:  E(RB3LYP) =  -398.243113331     A.U. after   11 cycles
 SCF Done:  E(RB3LYP) =  -398.242913573     A.U. after   11 cycles
 SCF Done:  E(RB3LYP) =  -398.243161615     A.U. after   11 cycles
 SCF Done:  E(RB3LYP) =  -398.243169472     A.U. after    8 cycles
 SCF Done:  E(RB3LYP) =  -398.243170088     A.U. after    7 cycles
 SCF Done:  E(RB3LYP) =  -398.243170737     A.U. after    8 cycles
 SCF Done:  E(RB3LYP) =  -398.243910245     A.U. after   10 cycles
 SCF Done:  E(RB3LYP) =  -398.243916946     A.U. after   11 cycles
 SCF Done:  E(RB3LYP) =  -398.243921766     A.U. after   11 cycles
 SCF Done:  E(RB3LYP) =  -398.243923960     A.U. after    8 cycles
 SCF Done:  E(RB3LYP) =  -398.243928225     A.U. after   11 cycles
 SCF Done:  E(RB3LYP) =  -398.243928905     A.U. after    9 cycles
 SCF Done:  E(RB3LYP) =  -398.243929178     A.U. after    9 cycles
 SCF Done:  E(RB3LYP) =  -398.243929195     A.U. after    8 cycles
 SCF Done:  E(RB3LYP) =  -398.243929207     A.U. after    8 cycles
 Optimization completed.
    -- Stationary point found.
 Normal termination of Gaussian 16 at Tue Jun  1 09:05:46 2021.

 ----------------------------------------------------------------------
 #N Geom=AllCheck Guess=TCheck SCRF=Check GenChk RB3LYP/6-31G(2df,p) Fr
 eq
 ----------------------------------------------------------------------

 Structure from the checkpoint file:  "CCtCNCpdNpCCdN.chk"
 -------------------
 Title Card Required
 -------------------
 Charge =  0 Multiplicity = 1

                         Standard orientation:
 ---------------------------------------------------------------------
 Center     Atomic      Atomic             Coordinates (Angstroms)
 Number     Number       Type             X           Y           Z
 ---------------------------------------------------------------------
      1          6           0       -4.391427    0.319823   -0.138639
      2          6           0       -3.001483   -0.107031   -0.059715
      3          6           0       -1.857113   -0.478823    0.004911
      4          7           0       -0.568824   -0.860732    0.077465
      5          6           0        0.505062    0.039943    0.108273
      6          7           0        0.414020    1.305700    0.081493
      7          6           0        1.850495   -0.653928    0.182936
      8          6           0        3.021388    0.300695    0.221564
      9          7           0        4.106974    0.202082   -0.426039
     10          1           0       -4.587738    0.900856   -1.046659
     11          1           0       -4.678526    0.933525    0.722517
     12          1           0       -5.056782   -0.550456   -0.156760
     13          1           0       -0.364629   -1.848174    0.103463
     14          1           0       -0.563060    1.603079    0.034750
     15          1           0        1.959140   -1.348952   -0.660123
     16          1           0        1.870036   -1.270348    1.095438
     17          1           0        2.903218    1.145276    0.902299
     18          1           0        4.091618   -0.618231   -1.041338
 ---------------------------------------------------------------------

 SCF Done:  E(RB3LYP) =  -398.243929207     A.U. after    1 cycles

 The electronic state is 1-A.
 Alpha  occ. eigenvalues --  -14.38814 -14.31252 -14.29972 -10.26885 -10.22730
 Alpha  occ. eigenvalues --  -10.21196 -10.21077 -10.20968 -10.18594  -0.98201
 Alpha  occ. eigenvalues --   -0.90008  -0.87550  -0.78270  -0.76087  -0.70334
 Alpha  occ. eigenvalues --   -0.62582  -0.57951  -0.57113  -0.53129  -0.46897
 Alpha  occ. eigenvalues --   -0.46711  -0.45608  -0.43382  -0.43241  -0.42649
 Alpha  occ. eigenvalues --   -0.40033  -0.38087  -0.30997  -0.29755  -0.27657
 Alpha  occ. eigenvalues --   -0.27508  -0.25429  -0.22135
 Alpha virt. eigenvalues --    0.00238   0.01239   0.03917   0.07499   0.09131
 Alpha virt. eigenvalues --    0.09613   0.10353   0.13192   0.14382   0.15847
 Alpha virt. eigenvalues --    0.17129   0.17450   0.19110   0.19770   0.23700

 Mulliken charges:
               1
     1  C   -0.512173
     2  C    0.425808
     3  C   -0.164642
     4  N   -0.474909
     5  C    0.355873
     6  N   -0.506284
     7  C   -0.369834
     8  C    0.104961
     9  N   -0.399945
    10  H    0.149949
    11  H    0.149576
    12  H    0.152888
    13  H    0.262214
    14  H    0.222687
    15  H    0.120290
    16  H    0.137735
    17  H    0.134512
    18  H    0.211293
 Sum of Mulliken charges =  -0.00000

 Dipole moment (field-independent basis, Debye):
    X=             -3.5233    Y=             -3.5331    Z=              0.2633  Tot=              4.9966
 Quadrupole moment (field-independent basis, Debye-Ang):
   XX=            -58.1980   YY=            -51.1056   ZZ=            -52.8896
   XY=             -9.1397   XZ=              1.1670   YZ=              1.0128

  Exact polarizability: 134.671  -5.554  72.226  -3.343   2.537  53.468
 Approx polarizability: 175.257 -11.273 120.453  -6.563   3.317  83.077

                      1                      2                      3
                      A                      A                      A
 Frequencies --     22.5311                26.2882                50.1302
 Red. masses --      1.1797                 2.8219                 3.3983
 Frc consts  --      0.0004                 0.0011                 0.0050
 IR Inten    --      0.1413                 0.1059                 0.1612

                      4                      5                      6
                      A                      A                      A
 Frequencies --     78.3173                94.4594               215.2743
 Red. masses --      3.4319                 3.1476                 3.3155
 Frc consts  --      0.0124                 0.0165                 0.0905
 IR Inten    --      2.6965                 2.3461                 5.2029

                      7                      8                      9
                      A                      A                      A
 Frequencies --    222.2466               300.9913               322.9338
 Red. masses --      4.0710                 3.9042                 1.1588
 Frc consts  --      0.1185                 0.2084                 0.0712
 IR Inten    --      2.7091                 6.7144                77.8187

                     10                     11                     12
                      A                      A                      A
 Frequencies --    334.7027               451.8138               455.9213
 Red. masses --      4.4444                 3.6092                 5.7103
 Frc consts  --      0.2933                 0.4341                 0.6993
 IR Inten    --      2.3161                 3.4676                 7.2560

                     13                     14                     15
                      A                      A                      A
 Frequencies --    470.0181               538.9789               646.8582
 Red. masses --      3.6517                 2.3911                 2.7273
 Frc consts  --      0.4753                 0.4093                 0.6724
 IR Inten    --      5.1244                 9.0318                14.8313

                     16                     17                     18
                      A                      A                      A
 Frequencies --    746.5633               821.1006               895.5892
 Red. masses --      2.3203                 4.1766                 1.4340
 Frc consts  --      0.7620                 1.6591                 0.6776
 IR Inten    --      1.8461                 1.2369                57.5531

                     19                     20                     21
                      A                      A                      A
 Frequencies --    944.6261               982.5288              1036.2798
 Red. masses --      3.1257                 2.3107                 2.5014
 Frc consts  --      1.6433                 1.3143                 1.5827
 IR Inten    --      3.1166                 2.5408                17.0127

                     22                     23                     24
                      A                      A                      A
 Frequencies --   1050.5555              1057.8351              1081.3657
 Red. masses --      1.4587                 1.3543                 2.1919
 Frc consts  --      0.9486                 0.8929                 1.5101
 IR Inten    --      2.8046                 0.8091                49.6139

                     25                     26                     27
                      A                      A                      A
 Frequencies --   1141.0728              1189.0136              1251.1405
 Red. masses --      1.0773                 1.1241                 1.3922
 Frc consts  --      0.8264                 0.9363                 1.2840
 IR Inten    --     49.0558                25.5314                46.0875

                     28                     29                     30
                      A                      A                      A
 Frequencies --   1288.1984              1292.5274              1371.7071
 Red. masses --      1.3970                 2.4291                 1.7500
 Frc consts  --      1.3659                 2.3910                 1.9400
 IR Inten    --    219.0128                 9.9772                19.3621

                     31                     32                     33
                      A                      A                      A
 Frequencies --   1416.4227              1418.5087              1450.5770
 Red. masses --      1.2564                 1.2315                 1.1051
 Frc consts  --      1.4851                 1.4600                 1.3700
 IR Inten    --     25.3999                11.4580                17.0265

                     34                     35                     36
                      A                      A                      A
 Frequencies --   1473.2879              1484.1181              1490.8984
 Red. masses --      1.0386                 1.0620                 1.8816
 Frc consts  --      1.3283                 1.3782                 2.4642
 IR Inten    --      5.8818                35.3765               250.1399

                     37                     38                     39
                      A                      A                      A
 Frequencies --   1732.9113              1737.5782              2384.1948
 Red. masses --      8.3034                 7.2804                11.7788
 Frc consts  --     14.6912                12.9507                39.4489
 IR Inten    --     64.8125               103.9595                44.0201

                     40                     41                     42
                      A                      A                      A
 Frequencies --   2995.4185              3024.9211              3043.9144
 Red. masses --      1.0636                 1.0348                 1.0946
 Frc consts  --      5.6227                 5.5789                 5.9755
 IR Inten    --     10.9237                36.1311                10.3378

                     43                     44                     45
                      A                      A                      A
 Frequencies --   3082.6903              3089.2518              3130.0527
 Red. masses --      1.1012                 1.0992                 1.0887
 Frc consts  --      6.1656                 6.1809                 6.2846
 IR Inten    --     11.8544                 8.2345                10.5753

                     46                     47                     48
                      A                      A                      A
 Frequencies --   3399.5933              3455.4161              3605.8932
 Red. masses --      1.0738                 1.0732                 1.0756
 Frc consts  --      7.3118                 7.5495                 8.2402
 IR Inten    --      6.2344                 1.0923                30.9363

 - Thermochemistry -
 -------------------
 Temperature   298.150 Kelvin.  Pressure   1.00000 Atm.
 Atom     1 has atomic number  6 and mass  12.00000

 Molecular mass:   123.07965 amu.
 Principal axes and moments of inertia in atomic units:
                           1         2         3
     Eigenvalues --   241.372993175.718213350.40891
           X            0.99992  -0.01227   0.00126
           Y            0.01224   0.99978   0.01712
           Z           -0.00147  -0.01711   0.99985
 This molecule is an asymmetric top.
 Rotational symmetry number  1.
 Rotational temperatures (Kelvin)      0.35884     0.02727     0.02585
 Rotational constants (GHZ):           7.47698     0.56829     0.53866
 Zero-point vibrational energy     381592.1 (Joules/Mol)
                                   91.20270 (Kcal/Mol)
 Warning -- explicit consideration of  14 degrees of freedom as
           vibrations may cause significant error
 Vibrational temperatures:     32.42    37.82    72.13   112.68   135.91
          (Kelvin)            309.73   319.76   433.06   464.63   481.56
                              650.06   655.97   676.25   775.47   930.68
                             1074.14  1181.38  1288.55  1359.11  1413.64
                             1490.98  1511.51  1521.99  1555.84  1641.75
                             1710.73  1800.11  1853.43  1859.66  1973.58
                             2037.92  2040.92  2087.06  2119.73  2135.31
                             2145.07  2493.27  2499.99  3430.32  4309.74
                             4352.19  4379.51  4435.30  4444.74  4503.45
                             4891.26  4971.57  5188.08

 Zero-point correction=                           0.145341 (Hartree/Particle)
 Thermal correction to Energy=                    0.156214
 Thermal correction to Enthalpy=                  0.157158
 Thermal correction to Gibbs Free Energy=         0.106317
 Sum of electronic and zero-point Energies=           -398.098588
 Sum of electronic and thermal Energies=              -398.087715
 Sum of electronic and thermal Enthalpies=            -398.086771
 Sum of electronic and thermal Free Energies=         -398.137612

                     E (Thermal)             CV                S
                      KCal/Mol        Cal/Mol-Kelvin    Cal/Mol-Kelvin
 Total                   98.026             36.110            107.005
 Electronic               0.000              0.000              0.000
 Translational            0.889              2.981             40.337
 Rotational               0.889              2.981             29.331
 Vibrational             96.248             30.149             37.337
 Vibration     1          0.593              1.985              6.398
 Vibration     2          0.593              1.985              6.091
 Vibration     3          0.595              1.978              4.812
 Vibration     4          0.600              1.964              3.933
 Vibration     5          0.603              1.953              3.566
 Vibration     6          0.645              1.818              1.998
 Vibration     7          0.648              1.807              1.941
 Vibration     8          0.693              1.672              1.411
 Vibration     9          0.708              1.630              1.295
 Vibration    10          0.716              1.606              1.237
 Vibration    11          0.810              1.357              0.790
 Vibration    12          0.814              1.348              0.778
 Vibration    13          0.827              1.317              0.737
 Vibration    14          0.894              1.164              0.567

 Optimization completed.
    -- Stationary point found.
 Normal termination of Gaussian 16 at Tue Jun  1 09:25:43 2021.
