 Gaussian 16, Revision A.03,
 Gaussian 16:  ES64L-G16RevA.03 25-Dec-2016

 -----------------------------
 # opt freq b3lyp/6-31g(2df,p)
 -----------------------------

 -------------------
 Title Card Required
 -------------------
 Symbolic Z-matrix:
 Charge =  0 Multiplicity = 1

 SCF Done:  E(RB3LYP) =  -552.076113301     A.U. after   15 cycles
 SCF Done:  E(RB3LYP) =  -552.101518519     A.U. after   13 cycles
 SCF Done:  E(RB3LYP) =  -552.102946704     A.U. after   13 cycles
 SCF Done:  E(RB3LYP) =  -552.093632103     A.U. after   15 cycles
 SCF Done:  E(RB3LYP) =  -552.104102948     A.U. after   13 cycles
 SCF Done:  E(RB3LYP) =  -552.103867405     A.U. after   13 cycles
 SCF Done:  E(RB3LYP) =  -552.104158016     A.U. after   13 cycles
 SCF Done:  E(RB3LYP) =  -552.103905085     A.U. after   13 cycles
 SCF Done:  E(RB3LYP) =  -552.104538657     A.U. after   11 cycles
 SCF Done:  E(RB3LYP) =  -552.104783947     A.U. after   13 cycles
 SCF Done:  E(RB3LYP) =  -552.105943034     A.U. after    7 cycles
 SCF Done:  E(RB3LYP) =  -552.105944316     A.U. after    9 cycles
 SCF Done:  E(RB3LYP) =  -552.105946736     A.U. after    9 cycles
 SCF Done:  E(RB3LYP) =  -552.105948342     A.U. after    9 cycles
 SCF Done:  E(RB3LYP) =  -552.105950587     A.U. after    9 cycles
 SCF Done:  E(RB3LYP) =  -552.105952414     A.U. after    9 cycles
 SCF Done:  E(RB3LYP) =  -552.105953291     A.U. after    9 cycles
 SCF Done:  E(RB3LYP) =  -552.105953553     A.U. after    9 cycles
 SCF Done:  E(RB3LYP) =  -552.105953605     A.U. after    7 cycles
 Optimization completed.
    -- Stationary point found.
 Normal termination of Gaussian 16 at Mon May 31 16:41:35 2021.

 ----------------------------------------------------------------------
 #N Geom=AllCheck Guess=TCheck SCRF=Check GenChk RB3LYP/6-31G(2df,p) Fr
 eq
 ----------------------------------------------------------------------

 Structure from the checkpoint file:  "CCtCCCpNpdNCNCCdO.chk"
 -------------------
 Title Card Required
 -------------------
 Charge =  0 Multiplicity = 1

                         Standard orientation:
 ---------------------------------------------------------------------
 Center     Atomic      Atomic             Coordinates (Angstroms)
 Number     Number       Type             X           Y           Z
 ---------------------------------------------------------------------
      1          6           0       -5.806378   -0.082134   -0.975641
      2          6           0       -4.537639    0.258088   -0.346160
      3          6           0       -3.494260    0.567477    0.171033
      4          6           0       -2.224183    0.912651    0.802581
      5          6           0       -1.083368   -0.056607    0.501360
      6          7           0       -1.444282   -1.383892    0.482573
      7          7           0        0.092778    0.422080    0.380125
      8          6           0        1.194688   -0.484388    0.179801
      9          7           0        2.383978    0.300340   -0.125358
     10          6           0        3.621430   -0.450755   -0.059059
     11          6           0        4.775926    0.356567   -0.626369
     12          8           0        5.918510    0.263803   -0.260435
     13          1           0       -6.422021   -0.711388   -0.323677
     14          1           0       -5.653580   -0.624303   -1.915204
     15          1           0       -6.383606    0.819934   -1.205974
     16          1           0       -2.357054    0.947471    1.892909
     17          1           0       -1.882819    1.904971    0.497565
     18          1           0       -2.415605   -1.576934    0.286331
     19          1           0       -0.792440   -2.047670    0.096554
     20          1           0        1.028350   -1.176580   -0.668712
     21          1           0        1.331981   -1.122642    1.079927
     22          1           0        2.397626    1.092729    0.509107
     23          1           0        3.521438   -1.334415   -0.710448
     24          1           0        3.906545   -0.828752    0.937992
     25          1           0        4.468494    1.052066   -1.439557
 ---------------------------------------------------------------------

 SCF Done:  E(RB3LYP) =  -552.105953605     A.U. after    1 cycles

 The electronic state is 1-A.
 Alpha  occ. eigenvalues --  -19.13440 -14.35002 -14.31489 -14.29720 -10.26397
 Alpha  occ. eigenvalues --  -10.25837 -10.23254 -10.21455 -10.21298 -10.21278
 Alpha  occ. eigenvalues --  -10.18621 -10.18170  -1.04129  -0.96069  -0.91279
 Alpha  occ. eigenvalues --   -0.85669  -0.79738  -0.76460  -0.72421  -0.68641
 Alpha  occ. eigenvalues --   -0.63903  -0.58239  -0.56902  -0.53630  -0.52042
 Alpha  occ. eigenvalues --   -0.49437  -0.47106  -0.46526  -0.45489  -0.44417
 Alpha  occ. eigenvalues --   -0.43739  -0.43546  -0.43011  -0.42051  -0.41268
 Alpha  occ. eigenvalues --   -0.39945  -0.38763  -0.35743  -0.34469  -0.27227
 Alpha  occ. eigenvalues --   -0.26183  -0.25014  -0.24657  -0.24112  -0.22520
 Alpha virt. eigenvalues --   -0.01819   0.02467   0.04526   0.05404   0.07207
 Alpha virt. eigenvalues --    0.09820   0.10242   0.12262   0.13313   0.14030
 Alpha virt. eigenvalues --    0.14452   0.15667   0.16966   0.17221   0.17781

 Mulliken charges:
               1
     1  C   -0.498104
     2  C    0.064265
     3  C    0.042991
     4  C   -0.410390
     5  C    0.371167
     6  N   -0.542994
     7  N   -0.302544
     8  C   -0.090540
     9  N   -0.304347
    10  C   -0.218112
    11  C    0.147082
    12  O   -0.240104
    13  H    0.149323
    14  H    0.149739
    15  H    0.155190
    16  H    0.149256
    17  H    0.158088
    18  H    0.258786
    19  H    0.258001
    20  H    0.081789
    21  H    0.078396
    22  H    0.224114
    23  H    0.125970
    24  H    0.106225
    25  H    0.086754
 Sum of Mulliken charges =   0.00000

 Dipole moment (field-independent basis, Debye):
    X=             -5.2569    Y=             -2.3173    Z=             -0.2820  Tot=              5.7519
 Quadrupole moment (field-independent basis, Debye-Ang):
   XX=            -83.4217   YY=            -66.8049   ZZ=            -70.3547
   XY=              0.8019   XZ=              3.0121   YZ=              2.8638

  Exact polarizability: 173.181   7.219  89.274  10.051   1.277  80.479
 Approx polarizability: 211.913  18.726 139.741  20.197   3.819 124.252

                      1                      2                      3
                      A                      A                      A
 Frequencies --     17.6466                30.7895                42.9372
 Red. masses --      4.7740                 1.0348                 4.7837
 Frc consts  --      0.0009                 0.0006                 0.0052
 IR Inten    --      0.2662                 0.0391                 1.1119

                      4                      5                      6
                      A                      A                      A
 Frequencies --     50.3267                79.1641                86.8750
 Red. masses --      3.8689                 3.6794                 2.4295
 Frc consts  --      0.0058                 0.0136                 0.0108
 IR Inten    --      0.3026                 6.3954                 0.4324

                      7                      8                      9
                      A                      A                      A
 Frequencies --    114.6697               119.7156               197.1535
 Red. masses --      2.9553                 3.5139                 3.2407
 Frc consts  --      0.0229                 0.0297                 0.0742
 IR Inten    --      5.3365                 4.2376                 2.4150

                     10                     11                     12
                      A                      A                      A
 Frequencies --    222.3561               238.3824               255.0076
 Red. masses --      3.7378                 2.6741                 4.5792
 Frc consts  --      0.1089                 0.0895                 0.1754
 IR Inten    --      5.0290                 8.9669                 1.3024

                     13                     14                     15
                      A                      A                      A
 Frequencies --    293.8211               381.2499               407.0422
 Red. masses --      3.2987                 3.7568                 3.2639
 Frc consts  --      0.1678                 0.3217                 0.3186
 IR Inten    --      6.2170                 0.0727                21.4496

                     16                     17                     18
                      A                      A                      A
 Frequencies --    421.5817               438.0964               473.3047
 Red. masses --      2.7891                 1.4766                 5.2376
 Frc consts  --      0.2921                 0.1670                 0.6913
 IR Inten    --     14.4286                51.7053                 4.1575

                     19                     20                     21
                      A                      A                      A
 Frequencies --    516.2561               557.8189               598.9613
 Red. masses --      1.1742                 3.1099                 3.0727
 Frc consts  --      0.1844                 0.5701                 0.6495
 IR Inten    --    154.1266                20.5555                14.2126

                     22                     23                     24
                      A                      A                      A
 Frequencies --    675.2924               737.7602               794.7063
 Red. masses --      3.2840                 1.3151                 3.6261
 Frc consts  --      0.8823                 0.4217                 1.3493
 IR Inten    --      0.6299                26.4737                 8.4295

                     25                     26                     27
                      A                      A                      A
 Frequencies --    818.3299               890.3425               944.2777
 Red. masses --      1.4067                 3.6625                 2.0870
 Frc consts  --      0.5550                 1.7106                 1.0964
 IR Inten    --     45.2237                 6.5412                 2.4159

                     28                     29                     30
                      A                      A                      A
 Frequencies --   1014.3742              1034.2150              1046.3827
 Red. masses --      2.7021                 3.0281                 1.6486
 Frc consts  --      1.6381                 1.9083                 1.0635
 IR Inten    --     42.4615                22.9991                13.2277

                     31                     32                     33
                      A                      A                      A
 Frequencies --   1052.0932              1055.2742              1089.6305
 Red. masses --      1.4055                 1.3939                 2.9364
 Frc consts  --      0.9167                 0.9146                 2.0541
 IR Inten    --      0.6807                 0.7176                 9.0859

                     34                     35                     36
                      A                      A                      A
 Frequencies --   1149.5169              1152.7443              1163.3560
 Red. masses --      2.0566                 2.1691                 3.0672
 Frc consts  --      1.6011                 1.6982                 2.4458
 IR Inten    --      3.8488                37.6844                 1.3546

                     37                     38                     39
                      A                      A                      A
 Frequencies --   1177.4263              1221.6401              1225.9847
 Red. masses --      2.8346                 1.1701                 1.1541
 Frc consts  --      2.3153                 1.0288                 1.0221
 IR Inten    --     37.8138                 2.6574                26.3809

                     40                     41                     42
                      A                      A                      A
 Frequencies --   1285.8105              1321.0154              1321.4438
 Red. masses --      1.2504                 1.5936                 1.3779
 Frc consts  --      1.2180                 1.6385                 1.4176
 IR Inten    --      3.4685                 8.2898                49.1151

                     43                     44                     45
                      A                      A                      A
 Frequencies --   1356.2538              1396.8477              1414.2159
 Red. masses --      3.8554                 1.2103                 1.3332
 Frc consts  --      4.1784                 1.3913                 1.5710
 IR Inten    --     56.5082                39.5642                39.5288

                     46                     47                     48
                      A                      A                      A
 Frequencies --   1416.0859              1455.8763              1473.0160
 Red. masses --      1.2696                 1.0871                 1.0986
 Frc consts  --      1.5000                 1.3576                 1.4044
 IR Inten    --      1.1790                 5.5017                 3.5237

                     49                     50                     51
                      A                      A                      A
 Frequencies --   1478.0339              1479.0245              1482.7787
 Red. masses --      1.0393                 1.0398                 1.2447
 Frc consts  --      1.3377                 1.3401                 1.6124
 IR Inten    --      5.9582                 5.9524               105.4822

                     52                     53                     54
                      A                      A                      A
 Frequencies --   1514.9117              1640.8052              1748.9604
 Red. masses --      1.0892                 1.1810                 7.9511
 Frc consts  --      1.4728                 1.8733                14.3296
 IR Inten    --      0.1084                80.1329               405.3119

                     55                     56                     57
                      A                      A                      A
 Frequencies --   1837.6692              2368.3639              2852.3115
 Red. masses --     10.3845                11.8147                 1.0718
 Frc consts  --     20.6620                39.0455                 5.1374
 IR Inten    --    176.0917                 1.5376                72.6674

                     58                     59                     60
                      A                      A                      A
 Frequencies --   2887.0841              2904.1651              2957.1525
 Red. masses --      1.0836                 1.0832                 1.0627
 Frc consts  --      5.3218                 5.3827                 5.4754
 IR Inten    --     89.6544                62.1131                56.4730

                     61                     62                     63
                      A                      A                      A
 Frequencies --   3001.5285              3017.6626              3028.4261
 Red. masses --      1.0946                 1.0691                 1.0348
 Frc consts  --      5.8102                 5.7361                 5.5918
 IR Inten    --     21.4780                 9.0734                30.8530

                     64                     65                     66
                      A                      A                      A
 Frequencies --   3089.2394              3090.9104              3098.8644
 Red. masses --      1.1004                 1.1000                 1.0904
 Frc consts  --      6.1873                 6.1920                 6.1691
 IR Inten    --      9.9775                 8.2897                 1.7878

                     67                     68                     69
                      A                      A                      A
 Frequencies --   3523.6246              3572.0278              3688.3805
 Red. masses --      1.0737                 1.0470                 1.0993
 Frc consts  --      7.8547                 7.8713                 8.8111
 IR Inten    --      2.8745                39.5678                42.0882

 - Thermochemistry -
 -------------------
 Temperature   298.150 Kelvin.  Pressure   1.00000 Atm.
 Atom     1 has atomic number  6 and mass  12.00000

 Molecular mass:   167.10586 amu.
 Principal axes and moments of inertia in atomic units:
                           1         2         3
     Eigenvalues --   441.842607948.863798032.61413
           X            0.99999  -0.00060   0.00520
           Y            0.00031   0.99840   0.05656
           Z           -0.00522  -0.05655   0.99839
 This molecule is an asymmetric top.
 Rotational symmetry number  1.
 Warning -- assumption of classical behavior for rotation
           may cause significant error
 Rotational temperatures (Kelvin)      0.19603     0.01090     0.01078
 Rotational constants (GHZ):           4.08458     0.22704     0.22468
 Zero-point vibrational energy     541244.4 (Joules/Mol)
                                  129.36051 (Kcal/Mol)
 Warning -- explicit consideration of  21 degrees of freedom as
           vibrations may cause significant error
 Vibrational temperatures:     25.39    44.30    61.78    72.41   113.90
          (Kelvin)            124.99   164.98   172.24   283.66   319.92
                              342.98   366.90   422.74   548.53   585.64
                              606.56   630.32   680.98   742.78   802.58
                              861.77   971.60  1061.47  1143.41  1177.39
                             1281.00  1358.60  1459.46  1488.00  1505.51
                             1513.73  1518.30  1567.74  1653.90  1658.54
                             1673.81  1694.05  1757.67  1763.92  1849.99
                             1900.65  1901.26  1951.35  2009.75  2034.74
                             2037.43  2094.68  2119.34  2126.56  2127.99
                             2133.39  2179.62  2360.75  2516.36  2644.00
                             3407.55  4103.84  4153.87  4178.45  4254.68
                             4318.53  4341.74  4357.23  4444.73  4447.13
                             4458.57  5069.71  5139.35  5306.76

 Zero-point correction=                           0.206149 (Hartree/Particle)
 Thermal correction to Energy=                    0.220753
 Thermal correction to Enthalpy=                  0.221697
 Thermal correction to Gibbs Free Energy=         0.161450
 Sum of electronic and zero-point Energies=           -551.899805
 Sum of electronic and thermal Energies=              -551.885200
 Sum of electronic and thermal Enthalpies=            -551.884256
 Sum of electronic and thermal Free Energies=         -551.944503

                     E (Thermal)             CV                S
                      KCal/Mol        Cal/Mol-Kelvin    Cal/Mol-Kelvin
 Total                  138.525             49.600            126.801
 Electronic               0.000              0.000              0.000
 Translational            0.889              2.981             41.249
 Rotational               0.889              2.981             31.712
 Vibrational            136.747             43.638             53.840
 Vibration     1          0.593              1.986              6.883
 Vibration     2          0.594              1.984              5.778
 Vibration     3          0.595              1.980              5.119
 Vibration     4          0.595              1.977              4.805
 Vibration     5          0.600              1.963              3.911
 Vibration     6          0.601              1.958              3.729
 Vibration     7          0.608              1.937              3.188
 Vibration     8          0.609              1.933              3.105
 Vibration     9          0.637              1.844              2.159
 Vibration    10          0.648              1.807              1.940
 Vibration    11          0.656              1.782              1.815
 Vibration    12          0.665              1.754              1.696
 Vibration    13          0.689              1.685              1.452
 Vibration    14          0.751              1.510              1.034
 Vibration    15          0.772              1.455              0.937
 Vibration    16          0.784              1.423              0.887
 Vibration    17          0.798              1.387              0.833
 Vibration    18          0.830              1.309              0.728
 Vibration    19          0.871              1.214              0.619
 Vibration    20          0.913              1.123              0.528
 Vibration    21          0.957              1.034              0.451

                           ! Non-Optimized Parameters !
 Normal termination of Gaussian 16 at Mon May 31 17:26:34 2021.
