 Gaussian 16, Revision A.03,
 Gaussian 16:  ES64L-G16RevA.03 25-Dec-2016

 -----------------------------
 # opt freq b3lyp/6-31g(2df,p)
 -----------------------------

 -------------------
 Title Card Required
 -------------------
 Symbolic Z-matrix:
 Charge =  0 Multiplicity = 1

 SCF Done:  E(RB3LYP) =  -313.256330106     A.U. after   13 cycles
 SCF Done:  E(RB3LYP) =  -313.258575540     A.U. after   11 cycles
 SCF Done:  E(RB3LYP) =  -313.258185779     A.U. after   11 cycles
 SCF Done:  E(RB3LYP) =  -313.259242001     A.U. after    9 cycles
 SCF Done:  E(RB3LYP) =  -313.259097299     A.U. after   10 cycles
 SCF Done:  E(RB3LYP) =  -313.259434219     A.U. after   10 cycles
 SCF Done:  E(RB3LYP) =  -313.259441218     A.U. after    8 cycles
 SCF Done:  E(RB3LYP) =  -313.259441638     A.U. after    7 cycles
 SCF Done:  E(RB3LYP) =  -313.259441757     A.U. after    6 cycles
 SCF Done:  E(RB3LYP) =  -313.259441824     A.U. after    5 cycles
 SCF Done:  E(RB3LYP) =  -313.259443744     A.U. after    9 cycles
 SCF Done:  E(RB3LYP) =  -313.259445319     A.U. after    9 cycles
 SCF Done:  E(RB3LYP) =  -313.259447136     A.U. after    9 cycles
 SCF Done:  E(RB3LYP) =  -313.259449978     A.U. after    9 cycles
 SCF Done:  E(RB3LYP) =  -313.259452247     A.U. after    9 cycles
 SCF Done:  E(RB3LYP) =  -313.259453587     A.U. after    7 cycles
 SCF Done:  E(RB3LYP) =  -313.259456725     A.U. after   11 cycles
 SCF Done:  E(RB3LYP) =  -313.259456798     A.U. after    7 cycles
 SCF Done:  E(RB3LYP) =  -313.259456801     A.U. after    4 cycles
 Optimization completed on the basis of negligible forces.
    -- Stationary point found.
 Normal termination of Gaussian 16 at Tue Jun  1 21:17:25 2021.

 ----------------------------------------------------------------------
 #N Geom=AllCheck Guess=TCheck SCRF=Check GenChk RB3LYP/6-31G(2df,p) Fr
 eq
 ----------------------------------------------------------------------

 Structure from the checkpoint file:  "CCtCCpCpCCC.chk"
 -------------------
 Title Card Required
 -------------------
 Charge =  0 Multiplicity = 1

                         Standard orientation:
 ---------------------------------------------------------------------
 Center     Atomic      Atomic             Coordinates (Angstroms)
 Number     Number       Type             X           Y           Z
 ---------------------------------------------------------------------
      1          6           0       -3.862835   -0.879767    0.131266
      2          6           0       -2.522324   -0.342434   -0.057892
      3          6           0       -1.415679    0.103645   -0.224110
      4          6           0       -0.064126    0.639690   -0.395916
      5          6           0        0.066472    2.010461    0.299877
      6          6           0        0.988719   -0.385371    0.093305
      7          6           0        2.440559   -0.012635   -0.227159
      8          6           0        3.431202   -1.105583    0.185689
      9          1           0       -3.836303   -1.851805    0.636580
     10          1           0       -4.375914   -1.020684   -0.826777
     11          1           0       -4.480097   -0.209250    0.739784
     12          1           0        0.104420    0.794303   -1.472280
     13          1           0       -0.050878    1.903439    1.383086
     14          1           0       -0.705972    2.697301   -0.055768
     15          1           0        1.041832    2.463080    0.101179
     16          1           0        0.758599   -1.355111   -0.363897
     17          1           0        0.868712   -0.522912    1.175972
     18          1           0        2.709897    0.924187    0.274577
     19          1           0        2.535705    0.179454   -1.304575
     20          1           0        3.378925   -1.300132    1.262721
     21          1           0        4.461219   -0.821270   -0.051304
     22          1           0        3.217926   -2.048637   -0.329657
 ---------------------------------------------------------------------

 SCF Done:  E(RB3LYP) =  -313.259456801     A.U. after    1 cycles

 The electronic state is 1-A.
 Alpha  occ. eigenvalues --  -10.20230 -10.19718 -10.17793 -10.17682 -10.17306
 Alpha  occ. eigenvalues --  -10.17132 -10.16289 -10.15739  -0.81449  -0.76774
 Alpha  occ. eigenvalues --   -0.75051  -0.68262  -0.67468  -0.61351  -0.57081
 Alpha  occ. eigenvalues --   -0.48207  -0.46457  -0.44130  -0.43641  -0.42029
 Alpha  occ. eigenvalues --   -0.41820  -0.41153  -0.38897  -0.37591  -0.36265
 Alpha  occ. eigenvalues --   -0.34793  -0.33045  -0.32619  -0.32094  -0.23981
 Alpha  occ. eigenvalues --   -0.23892
 Alpha virt. eigenvalues --    0.06447   0.06901   0.09477   0.11538   0.11851
 Alpha virt. eigenvalues --    0.12692   0.13563   0.16300   0.17021   0.17419
 Alpha virt. eigenvalues --    0.17669   0.18478   0.19175   0.19474   0.19984

 Mulliken charges:
               1
     1  C   -0.497629
     2  C    0.073627
     3  C    0.057934
     4  C   -0.160923
     5  C   -0.382262
     6  C   -0.150389
     7  C   -0.174571
     8  C   -0.383462
     9  H    0.144527
    10  H    0.144560
    11  H    0.144563
    12  H    0.096155
    13  H    0.120112
    14  H    0.121509
    15  H    0.113743
    16  H    0.100853
    17  H    0.098532
    18  H    0.099577
    19  H    0.093534
    20  H    0.114744
    21  H    0.110677
    22  H    0.114589
 Sum of Mulliken charges =  -0.00000

 Dipole moment (field-independent basis, Debye):
    X=             -0.0151    Y=             -0.0587    Z=              0.0349  Tot=              0.0699
 Quadrupole moment (field-independent basis, Debye-Ang):
   XX=            -46.4561   YY=            -50.9002   ZZ=            -51.0486
   XY=              2.1113   XZ=             -0.8018   YZ=             -0.1731

  Exact polarizability: 118.733   8.502  78.534  -2.670  -0.910  67.079
 Approx polarizability: 150.848  18.341 109.332  -6.608  -2.522 101.980

                      1                      2                      3
                      A                      A                      A
 Frequencies --     16.1252                69.9465                76.7341
 Red. masses --      1.0218                 1.6682                 3.2419
 Frc consts  --      0.0002                 0.0048                 0.0112
 IR Inten    --      0.0001                 0.1543                 0.6483

                      4                      5                      6
                      A                      A                      A
 Frequencies --     92.4608               150.1577               210.9536
 Red. masses --      2.5695                 2.3662                 2.6465
 Frc consts  --      0.0129                 0.0314                 0.0694
 IR Inten    --      0.2489                 2.1780                 2.3511

                      7                      8                      9
                      A                      A                      A
 Frequencies --    237.7227               253.8730               292.7219
 Red. masses --      1.1310                 1.2008                 3.0486
 Frc consts  --      0.0377                 0.0456                 0.1539
 IR Inten    --      0.6141                 0.6601                 3.1165

                     10                     11                     12
                      A                      A                      A
 Frequencies --    319.9307               338.5781               393.5138
 Red. masses --      3.0063                 3.1266                 3.3330
 Frc consts  --      0.1813                 0.2112                 0.3041
 IR Inten    --      1.6205                 0.9363                 0.0854

                     13                     14                     15
                      A                      A                      A
 Frequencies --    514.7958               542.5751               735.8213
 Red. masses --      3.0578                 5.1249                 2.4479
 Frc consts  --      0.4775                 0.8889                 0.7809
 IR Inten    --      0.5930                 1.7115                 0.6044

                     16                     17                     18
                      A                      A                      A
 Frequencies --    746.3377               852.9184               875.0130
 Red. masses --      1.2042                 1.7143                 1.4863
 Frc consts  --      0.3952                 0.7348                 0.6705
 IR Inten    --      2.3053                 0.1588                 0.4251

                     19                     20                     21
                      A                      A                      A
 Frequencies --    928.0174               999.8826              1008.5106
 Red. masses --      1.8731                 1.3386                 1.9022
 Frc consts  --      0.9505                 0.7885                 1.1399
 IR Inten    --      3.6790                 0.2821                 2.1187

                     22                     23                     24
                      A                      A                      A
 Frequencies --   1051.4439              1053.6787              1055.4677
 Red. masses --      1.7817                 1.4014                 1.7603
 Frc consts  --      1.1605                 0.9167                 1.1554
 IR Inten    --      1.0069                 0.8186                 0.9727

                     25                     26                     27
                      A                      A                      A
 Frequencies --   1098.3575              1129.6402              1158.4893
 Red. masses --      2.2287                 2.3602                 2.0804
 Frc consts  --      1.5842                 1.7745                 1.6450
 IR Inten    --      3.4122                 1.3634                 0.2792

                     28                     29                     30
                      A                      A                      A
 Frequencies --   1203.2730              1260.2208              1290.5667
 Red. masses --      2.1300                 1.3962                 1.2488
 Frc consts  --      1.8171                 1.3065                 1.2254
 IR Inten    --      2.3251                 5.2182                 6.4903

                     31                     32                     33
                      A                      A                      A
 Frequencies --   1324.9632              1344.1752              1352.8044
 Red. masses --      1.1535                 1.2175                 1.5116
 Frc consts  --      1.1931                 1.2961                 1.6298
 IR Inten    --      1.0750                 1.4272                 8.6642

                     34                     35                     36
                      A                      A                      A
 Frequencies --   1392.7945              1406.1752              1413.4314
 Red. masses --      1.5139                 1.2361                 1.2365
 Frc consts  --      1.7303                 1.4401                 1.4554
 IR Inten    --      2.9690                 2.3874                 2.7050

                     37                     38                     39
                      A                      A                      A
 Frequencies --   1415.3436              1479.6182              1479.8303
 Red. masses --      1.2434                 1.0421                 1.0399
 Frc consts  --      1.4675                 1.3441                 1.3418
 IR Inten    --      7.5975                 5.2855                 4.9107

                     40                     41                     42
                      A                      A                      A
 Frequencies --   1481.1445              1493.5623              1495.2311
 Red. masses --      1.0706                 1.0600                 1.0485
 Frc consts  --      1.3838                 1.3931                 1.3812
 IR Inten    --      0.2806                 0.5615                 3.5527

                     43                     44                     45
                      A                      A                      A
 Frequencies --   1499.4436              1501.5901              1511.1334
 Red. masses --      1.0429                 1.0491                 1.0820
 Frc consts  --      1.3815                 1.3937                 1.4558
 IR Inten    --      5.8323                 1.8642                 3.4385

                     46                     47                     48
                      A                      A                      A
 Frequencies --   2368.2595              2987.9897              3013.2657
 Red. masses --     11.8438                 1.0807                 1.0622
 Frc consts  --     39.1382                 5.6849                 5.6823
 IR Inten    --      0.1099                14.6960                 5.7947

                     49                     50                     51
                      A                      A                      A
 Frequencies --   3023.4965              3023.9070              3029.6721
 Red. masses --      1.0351                 1.0572                 1.0387
 Frc consts  --      5.5751                 5.6957                 5.6175
 IR Inten    --     36.5722                35.5617                47.4656

                     52                     53                     54
                      A                      A                      A
 Frequencies --   3039.8148              3046.8903              3069.2108
 Red. masses --      1.0407                 1.0901                 1.1026
 Frc consts  --      5.6661                 5.9627                 6.1197
 IR Inten    --     14.5252                 4.0389                30.7910

                     55                     56                     57
                      A                      A                      A
 Frequencies --   3082.6816              3082.8243              3096.9235
 Red. masses --      1.1001                 1.1001                 1.1022
 Frc consts  --      6.1593                 6.1598                 6.2286
 IR Inten    --     12.2435                12.1815                59.7257

                     58                     59                     60
                      A                      A                      A
 Frequencies --   3101.0421              3112.7382              3119.3652
 Red. masses --      1.1011                 1.1014                 1.1019
 Frc consts  --      6.2386                 6.2877                 6.3171
 IR Inten    --     35.8154                29.3524                32.0758

 - Thermochemistry -
 -------------------
 Temperature   298.150 Kelvin.  Pressure   1.00000 Atm.
 Atom     1 has atomic number  6 and mass  12.00000

 Molecular mass:   110.10955 amu.
 Principal axes and moments of inertia in atomic units:
                           1         2         3
     Eigenvalues --   458.352172259.396642605.29117
           X            1.00000  -0.00005  -0.00165
           Y            0.00005   1.00000   0.00045
           Z            0.00165  -0.00045   1.00000
 This molecule is an asymmetric top.
 Rotational symmetry number  1.
 Warning -- assumption of classical behavior for rotation
           may cause significant error
 Rotational temperatures (Kelvin)      0.18897     0.03833     0.03325
 Rotational constants (GHZ):           3.93746     0.79877     0.69272
 Zero-point vibrational energy     518862.6 (Joules/Mol)
                                  124.01113 (Kcal/Mol)
 Warning -- explicit consideration of  14 degrees of freedom as
           vibrations may cause significant error
 Vibrational temperatures:     23.20   100.64   110.40   133.03   216.04
          (Kelvin)            303.52   342.03   365.27   421.16   460.31
                              487.14   566.18   740.68   780.64  1058.68
                             1073.81  1227.16  1258.95  1335.21  1438.61
                             1451.02  1512.79  1516.01  1518.58  1580.29
                             1625.30  1666.81  1731.24  1813.18  1856.84
                             1906.33  1933.97  1946.38  2003.92  2023.17
                             2033.61  2036.36  2128.84  2129.15  2131.04
                             2148.90  2151.30  2157.36  2160.45  2174.18
                             3407.40  4299.05  4335.42  4350.14  4350.73
                             4359.02  4373.62  4383.80  4415.91  4435.29
                             4435.50  4455.78  4461.71  4478.54  4488.07

 Zero-point correction=                           0.197624 (Hartree/Particle)
 Thermal correction to Energy=                    0.208518
 Thermal correction to Enthalpy=                  0.209462
 Thermal correction to Gibbs Free Energy=         0.159834
 Sum of electronic and zero-point Energies=           -313.061832
 Sum of electronic and thermal Energies=              -313.050939
 Sum of electronic and thermal Enthalpies=            -313.049995
 Sum of electronic and thermal Free Energies=         -313.099623

                     E (Thermal)             CV                S
                      KCal/Mol        Cal/Mol-Kelvin    Cal/Mol-Kelvin
 Total                  130.847             37.379            104.451
 Electronic               0.000              0.000              0.000
 Translational            0.889              2.981             40.005
 Rotational               0.889              2.981             29.380
 Vibrational            129.070             31.418             35.067
 Vibration     1          0.593              1.986              7.062
 Vibration     2          0.598              1.968              4.155
 Vibration     3          0.599              1.965              3.973
 Vibration     4          0.602              1.955              3.607
 Vibration     5          0.618              1.902              2.670
 Vibration     6          0.643              1.824              2.035
 Vibration     7          0.656              1.783              1.820
 Vibration     8          0.665              1.756              1.704
 Vibration     9          0.688              1.687              1.458
 Vibration    10          0.706              1.635              1.310
 Vibration    11          0.719              1.598              1.219
 Vibration    12          0.761              1.484              0.987
 Vibration    13          0.870              1.217              0.622
 Vibration    14          0.898              1.156              0.560

 Optimization completed.
    -- Stationary point found.
 Normal termination of Gaussian 16 at Tue Jun  1 21:41:31 2021.
