 Gaussian 16, Revision A.03,
 Gaussian 16:  ES64L-G16RevA.03 25-Dec-2016

 -----------------------------
 # opt freq b3lyp/6-31g(2df,p)
 -----------------------------

 -------------------
 Title Card Required
 -------------------
 Symbolic Z-matrix:
 Charge =  0 Multiplicity = 1

 SCF Done:  E(RB3LYP) =  -472.404324296     A.U. after   13 cycles
 SCF Done:  E(RB3LYP) =  -472.424477614     A.U. after   12 cycles
 SCF Done:  E(RB3LYP) =  -472.425399753     A.U. after   11 cycles
 SCF Done:  E(RB3LYP) =  -472.419304880     A.U. after   13 cycles
 SCF Done:  E(RB3LYP) =  -472.425615421     A.U. after   11 cycles
 SCF Done:  E(RB3LYP) =  -472.423949853     A.U. after   13 cycles
 SCF Done:  E(RB3LYP) =  -472.425736327     A.U. after   10 cycles
 SCF Done:  E(RB3LYP) =  -472.425770910     A.U. after    9 cycles
 SCF Done:  E(RB3LYP) =  -472.425771487     A.U. after    7 cycles
 SCF Done:  E(RB3LYP) =  -472.425771586     A.U. after    6 cycles
 SCF Done:  E(RB3LYP) =  -472.425776957     A.U. after    9 cycles
 SCF Done:  E(RB3LYP) =  -472.425780918     A.U. after   10 cycles
 SCF Done:  E(RB3LYP) =  -472.425777563     A.U. after   10 cycles
 SCF Done:  E(RB3LYP) =  -472.425784140     A.U. after   10 cycles
 SCF Done:  E(RB3LYP) =  -472.425789690     A.U. after   11 cycles
 SCF Done:  E(RB3LYP) =  -472.425790174     A.U. after   11 cycles
 SCF Done:  E(RB3LYP) =  -472.425791656     A.U. after    9 cycles
 SCF Done:  E(RB3LYP) =  -472.425791916     A.U. after    8 cycles
 SCF Done:  E(RB3LYP) =  -472.425792003     A.U. after    8 cycles
 Optimization completed.
    -- Stationary point found.
 Normal termination of Gaussian 16 at Tue Jun  1 08:51:14 2021.

 ----------------------------------------------------------------------
 #N Geom=AllCheck Guess=TCheck SCRF=Check GenChk RB3LYP/6-31G(2df,p) Fr
 eq
 ----------------------------------------------------------------------

 Structure from the checkpoint file:  "CCtCCCpCpCpFpF.chk"
 -------------------
 Title Card Required
 -------------------
 Charge =  0 Multiplicity = 1

                         Standard orientation:
 ---------------------------------------------------------------------
 Center     Atomic      Atomic             Coordinates (Angstroms)
 Number     Number       Type             X           Y           Z
 ---------------------------------------------------------------------
      1          6           0       -4.279325    0.049347   -0.378193
      2          6           0       -2.887610   -0.212673   -0.038484
      3          6           0       -1.740613   -0.440798    0.248734
      4          6           0       -0.345327   -0.709033    0.576388
      5          6           0        0.641867    0.264256   -0.111924
      6          6           0        0.421557    1.721177    0.304929
      7          6           0        2.071834   -0.163769    0.182809
      8          9           0        2.281754   -1.443832   -0.231942
      9          9           0        2.946121    0.627024   -0.494685
     10          1           0       -4.848566   -0.882468   -0.468238
     11          1           0       -4.363058    0.580244   -1.332926
     12          1           0       -4.768833    0.663596    0.385687
     13          1           0       -0.086294   -1.733804    0.288663
     14          1           0       -0.204969   -0.650749    1.665728
     15          1           0        0.514503    0.172628   -1.197357
     16          1           0        0.573429    1.849360    1.383608
     17          1           0       -0.601043    2.027159    0.073719
     18          1           0        1.115048    2.384495   -0.216533
     19          1           0        2.324610   -0.110229    1.251734
 ---------------------------------------------------------------------

 SCF Done:  E(RB3LYP) =  -472.425792003     A.U. after    1 cycles

 The electronic state is 1-A.
 Alpha  occ. eigenvalues --  -24.69251 -24.69205 -10.33129 -10.21011 -10.20419
 Alpha  occ. eigenvalues --  -10.20400 -10.18116 -10.17412 -10.17018  -1.24226
 Alpha  occ. eigenvalues --   -1.18388  -0.82826  -0.77422  -0.73104  -0.68949
 Alpha  occ. eigenvalues --   -0.66855  -0.60316  -0.54612  -0.53364  -0.50297
 Alpha  occ. eigenvalues --   -0.47781  -0.46075  -0.43779  -0.42813  -0.42618
 Alpha  occ. eigenvalues --   -0.42149  -0.40895  -0.40363  -0.38560  -0.37904
 Alpha  occ. eigenvalues --   -0.36004  -0.35461  -0.32128  -0.25086  -0.24939
 Alpha virt. eigenvalues --    0.05480   0.05936   0.10200   0.10732   0.11647
 Alpha virt. eigenvalues --    0.12405   0.14345   0.14970   0.15707   0.17445
 Alpha virt. eigenvalues --    0.17742   0.18627   0.19831   0.19986   0.21792

 Mulliken charges:
               1
     1  C   -0.498343
     2  C    0.111145
     3  C    0.026083
     4  C   -0.373473
     5  C   -0.046089
     6  C   -0.407439
     7  C    0.150182
     8  F   -0.121631
     9  F   -0.117033
    10  H    0.148947
    11  H    0.147904
    12  H    0.147140
    13  H    0.141935
    14  H    0.122268
    15  H    0.106797
    16  H    0.114081
    17  H    0.136661
    18  H    0.131203
    19  H    0.079661
 Sum of Mulliken charges =  -0.00000

 Dipole moment (field-independent basis, Debye):
    X=             -1.7603    Y=              0.6668    Z=              0.8354  Tot=              2.0594
 Quadrupole moment (field-independent basis, Debye-Ang):
   XX=            -51.3401   YY=            -54.0244   ZZ=            -51.3843
   XY=             -0.1536   XZ=              4.2635   YZ=             -0.4165

  Exact polarizability: 105.714  -2.493  65.048   6.760  -1.082  60.184
 Approx polarizability: 140.050  -7.750  92.615  11.498  -2.516  91.270

                      1                      2                      3
                      A                      A                      A
 Frequencies --     17.0838                50.2563                73.4520
 Red. masses --      1.0247                 3.8214                 5.0871
 Frc consts  --      0.0002                 0.0057                 0.0162
 IR Inten    --      0.0142                 0.4107                 0.4785

                      4                      5                      6
                      A                      A                      A
 Frequencies --     89.7755               195.5176               208.6996
 Red. masses --      3.9402                 5.3899                 1.9493
 Frc consts  --      0.0187                 0.1214                 0.0500
 IR Inten    --      0.1588                 2.9883                 5.0875

                      7                      8                      9
                      A                      A                      A
 Frequencies --    227.3611               265.0506               311.4374
 Red. masses --      1.3084                 3.3020                 3.8480
 Frc consts  --      0.0398                 0.1367                 0.2199
 IR Inten    --      3.4333                 5.8037                 3.2369

                     10                     11                     12
                      A                      A                      A
 Frequencies --    365.9218               386.2438               412.5812
 Red. masses --      2.5132                 3.7089                 5.7188
 Frc consts  --      0.1983                 0.3260                 0.5736
 IR Inten    --      3.2632                 0.0683                 1.6117

                     13                     14                     15
                      A                      A                      A
 Frequencies --    457.8668               541.5805               606.7601
 Red. masses --      5.5756                 5.3834                 4.8224
 Frc consts  --      0.6887                 0.9303                 1.0460
 IR Inten    --      3.5895                 6.6381                 5.0166

                     16                     17                     18
                      A                      A                      A
 Frequencies --    773.0256               859.1235               903.7880
 Red. masses --      3.9352                 2.1390                 1.3821
 Frc consts  --      1.3855                 0.9302                 0.6651
 IR Inten    --      0.9298                 5.2964                 2.2124

                     19                     20                     21
                      A                      A                      A
 Frequencies --    929.4594              1052.8681              1053.7449
 Red. masses --      1.8216                 1.4054                 1.3973
 Frc consts  --      0.9272                 0.9179                 0.9141
 IR Inten    --     11.4637                 0.5350                 0.9635

                     22                     23                     24
                      A                      A                      A
 Frequencies --   1088.6261              1110.8602              1120.6580
 Red. masses --      4.3317                 2.1904                 3.4670
 Frc consts  --      3.0246                 1.5925                 2.5654
 IR Inten    --     68.8357                64.9602                60.5273

                     25                     26                     27
                      A                      A                      A
 Frequencies --   1135.2768              1169.5180              1173.6448
 Red. masses --      3.2578                 2.3581                 2.7389
 Frc consts  --      2.4739                 1.9003                 2.2228
 IR Inten    --     84.0674                13.2122                 1.8091

                     28                     29                     30
                      A                      A                      A
 Frequencies --   1244.9648              1288.7990              1346.2029
 Red. masses --      1.3086                 1.2825                 1.3330
 Frc consts  --      1.1950                 1.2551                 1.4233
 IR Inten    --     14.2701                 4.5057                 1.0850

                     31                     32                     33
                      A                      A                      A
 Frequencies --   1364.1910              1399.1750              1408.5674
 Red. masses --      1.4469                 1.1860                 1.3120
 Frc consts  --      1.5865                 1.3680                 1.5337
 IR Inten    --      3.4297                17.2315                 4.6138

                     34                     35                     36
                      A                      A                      A
 Frequencies --   1415.7055              1428.9690              1476.9814
 Red. masses --      1.2461                 1.4512                 1.0926
 Frc consts  --      1.4715                 1.7460                 1.4044
 IR Inten    --      6.1433                42.9880                 3.0856

                     37                     38                     39
                      A                      A                      A
 Frequencies --   1478.8208              1479.3376              1500.4200
 Red. masses --      1.0396                 1.0398                 1.0501
 Frc consts  --      1.3396                 1.3407                 1.3929
 IR Inten    --      5.4534                 5.6382                 5.2280

                     40                     41                     42
                      A                      A                      A
 Frequencies --   1502.9543              2373.5484              3002.4409
 Red. masses --      1.0618                11.8194                 1.0678
 Frc consts  --      1.4131                39.2321                 5.6714
 IR Inten    --      8.5755                 0.7690                15.1237

                     43                     44                     45
                      A                      A                      A
 Frequencies --   3018.2750              3026.2920              3034.3241
 Red. masses --      1.0833                 1.0348                 1.0467
 Frc consts  --      5.8146                 5.5839                 5.6781
 IR Inten    --     36.5280                32.8809                12.8412

                     46                     47                     48
                      A                      A                      A
 Frequencies --   3049.7285              3066.9962              3086.5971
 Red. masses --      1.0780                 1.0922                 1.1002
 Frc consts  --      5.9072                 6.0530                 6.1758
 IR Inten    --     30.1213                14.7028                11.0215

                     49                     50                     51
                      A                      A                      A
 Frequencies --   3086.9902              3110.0434              3137.4276
 Red. masses --      1.1001                 1.0933                 1.1027
 Frc consts  --      6.1765                 6.2302                 6.3954
 IR Inten    --     10.2406                21.4887                12.5431

 - Thermochemistry -
 -------------------
 Temperature   298.150 Kelvin.  Pressure   1.00000 Atm.
 Atom     1 has atomic number  6 and mass  12.00000

 Molecular mass:   132.07506 amu.
 Principal axes and moments of inertia in atomic units:
                           1         2         3
     Eigenvalues --   480.515572769.350893080.92695
           X            0.99989   0.00313   0.01415
           Y           -0.00318   0.99999   0.00297
           Z           -0.01414  -0.00302   0.99990
 This molecule is an asymmetric top.
 Rotational symmetry number  1.
 Warning -- assumption of classical behavior for rotation
           may cause significant error
 Rotational temperatures (Kelvin)      0.18025     0.03128     0.02811
 Rotational constants (GHZ):           3.75584     0.65168     0.58578
 Zero-point vibrational energy     406179.6 (Joules/Mol)
                                   97.07926 (Kcal/Mol)
 Warning -- explicit consideration of  15 degrees of freedom as
           vibrations may cause significant error
 Vibrational temperatures:     24.58    72.31   105.68   129.17   281.31
          (Kelvin)            300.27   327.12   381.35   448.09   526.48
                              555.72   593.61   658.77   779.21   872.99
                             1112.21  1236.09  1300.35  1337.28  1514.84
                             1516.10  1566.29  1598.28  1612.38  1633.41
                             1682.68  1688.61  1791.23  1854.29  1936.89
                             1962.77  2013.10  2026.61  2036.88  2055.97
                             2125.05  2127.69  2128.44  2158.77  2162.42
                             3415.01  4319.84  4342.62  4354.16  4365.72
                             4387.88  4412.72  4440.92  4441.49  4474.66
                             4514.06

 Zero-point correction=                           0.154706 (Hartree/Particle)
 Thermal correction to Energy=                    0.165439
 Thermal correction to Enthalpy=                  0.166383
 Thermal correction to Gibbs Free Energy=         0.116443
 Sum of electronic and zero-point Energies=           -472.271086
 Sum of electronic and thermal Energies=              -472.260353
 Sum of electronic and thermal Enthalpies=            -472.259409
 Sum of electronic and thermal Free Energies=         -472.309349

                     E (Thermal)             CV                S
                      KCal/Mol        Cal/Mol-Kelvin    Cal/Mol-Kelvin
 Total                  103.815             36.470            105.108
 Electronic               0.000              0.000              0.000
 Translational            0.889              2.981             40.547
 Rotational               0.889              2.981             29.795
 Vibrational            102.037             30.508             34.765
 Vibration     1          0.593              1.986              6.947
 Vibration     2          0.595              1.977              4.807
 Vibration     3          0.599              1.967              4.059
 Vibration     4          0.602              1.956              3.665
 Vibration     5          0.636              1.846              2.175
 Vibration     6          0.642              1.827              2.055
 Vibration     7          0.651              1.799              1.900
 Vibration     8          0.671              1.737              1.628
 Vibration     9          0.700              1.652              1.355
 Vibration    10          0.739              1.542              1.097
 Vibration    11          0.755              1.500              1.015
 Vibration    12          0.776              1.443              0.918
 Vibration    13          0.816              1.343              0.772
 Vibration    14          0.897              1.158              0.562
 Vibration    15          0.965              1.017              0.438

 Optimization completed.
    -- Stationary point found.
 Normal termination of Gaussian 16 at Tue Jun  1 09:24:34 2021.
