 Gaussian 16, Revision A.03,
 Gaussian 16:  ES64L-G16RevA.03 25-Dec-2016

 -----------------------------
 # opt freq b3lyp/6-31g(2df,p)
 -----------------------------

 -------------------
 Title Card Required
 -------------------
 Symbolic Z-matrix:
 Charge =  0 Multiplicity = 1

 SCF Done:  E(RB3LYP) =  -326.867072543     A.U. after   14 cycles
 SCF Done:  E(RB3LYP) =  -326.867056461     A.U. after   12 cycles
 SCF Done:  E(RB3LYP) =  -326.867949393     A.U. after   12 cycles
 SCF Done:  E(RB3LYP) =  -326.868041460     A.U. after   11 cycles
 SCF Done:  E(RB3LYP) =  -326.868284624     A.U. after   10 cycles
 SCF Done:  E(RB3LYP) =  -326.868290623     A.U. after    9 cycles
 SCF Done:  E(RB3LYP) =  -326.868292290     A.U. after    8 cycles
 SCF Done:  E(RB3LYP) =  -326.868292406     A.U. after    7 cycles
 SCF Done:  E(RB3LYP) =  -326.868292478     A.U. after    6 cycles
 SCF Done:  E(RB3LYP) =  -326.868292729     A.U. after    8 cycles
 SCF Done:  E(RB3LYP) =  -326.868293061     A.U. after    8 cycles
 SCF Done:  E(RB3LYP) =  -326.868293591     A.U. after    9 cycles
 SCF Done:  E(RB3LYP) =  -326.868294167     A.U. after    9 cycles
 SCF Done:  E(RB3LYP) =  -326.868295207     A.U. after    9 cycles
 SCF Done:  E(RB3LYP) =  -326.868296301     A.U. after   10 cycles
 SCF Done:  E(RB3LYP) =  -326.868297348     A.U. after    9 cycles
 SCF Done:  E(RB3LYP) =  -326.868298647     A.U. after    8 cycles
 SCF Done:  E(RB3LYP) =  -326.868298764     A.U. after    8 cycles
 Optimization completed on the basis of negligible forces.
    -- Stationary point found.
 Normal termination of Gaussian 16 at Tue Jun  1 00:14:16 2021.

 ----------------------------------------------------------------------
 #N Geom=AllCheck Guess=TCheck SCRF=Check GenChk RB3LYP/6-31G(2df,p) Fr
 eq
 ----------------------------------------------------------------------

 Structure from the checkpoint file:  "CCtCCpCpCCtN.chk"
 -------------------
 Title Card Required
 -------------------
 Charge =  0 Multiplicity = 1

                         Standard orientation:
 ---------------------------------------------------------------------
 Center     Atomic      Atomic             Coordinates (Angstroms)
 Number     Number       Type             X           Y           Z
 ---------------------------------------------------------------------
      1          6           0       -3.771077   -0.446773    0.086023
      2          6           0       -2.352504   -0.162860   -0.079016
      3          6           0       -1.182041    0.078288   -0.227649
      4          6           0        0.242894    0.365605   -0.378571
      5          6           0        0.613675    1.742913    0.202129
      6          6           0        1.070018   -0.778246    0.279102
      7          6           0        2.507305   -0.631791    0.061081
      8          7           0        3.640551   -0.501668   -0.125138
      9          1           0       -3.928192   -1.351150    0.683903
     10          1           0       -4.260623   -0.600116   -0.881866
     11          1           0       -4.285128    0.378026    0.591418
     12          1           0        0.490256    0.367265   -1.448109
     13          1           0        0.386997    1.783783    1.271962
     14          1           0        0.042032    2.529959   -0.294979
     15          1           0        1.679466    1.944055    0.062374
     16          1           0        0.748983   -1.743659   -0.123757
     17          1           0        0.872737   -0.799313    1.356422
 ---------------------------------------------------------------------

 SCF Done:  E(RB3LYP) =  -326.868298764     A.U. after    1 cycles

 The electronic state is 1-A.
 Alpha  occ. eigenvalues --  -14.32691 -10.23695 -10.23366 -10.21989 -10.21153
 Alpha  occ. eigenvalues --  -10.18953 -10.18512 -10.17777  -0.90180  -0.83824
 Alpha  occ. eigenvalues --   -0.77910  -0.73605  -0.70164  -0.63360  -0.52854
 Alpha  occ. eigenvalues --   -0.48771  -0.48369  -0.45738  -0.43701  -0.43384
 Alpha  occ. eigenvalues --   -0.43168  -0.39612  -0.37908  -0.37348  -0.35566
 Alpha  occ. eigenvalues --   -0.32593  -0.32235  -0.26149  -0.26012
 Alpha virt. eigenvalues --    0.02566   0.03221   0.05127   0.05837   0.09665
 Alpha virt. eigenvalues --    0.10419   0.12418   0.13845   0.15212   0.16466
 Alpha virt. eigenvalues --    0.16995   0.17438   0.17844   0.20328   0.21137

 Mulliken charges:
               1
     1  C   -0.498454
     2  C    0.092274
     3  C    0.047596
     4  C   -0.164745
     5  C   -0.390977
     6  C   -0.329646
     7  C    0.260190
     8  N   -0.311926
     9  H    0.150539
    10  H    0.152000
    11  H    0.151766
    12  H    0.123608
    13  H    0.126204
    14  H    0.131853
    15  H    0.142266
    16  H    0.159897
    17  H    0.157554
 Sum of Mulliken charges =  -0.00000

 Dipole moment (field-independent basis, Debye):
    X=             -4.3038    Y=             -0.1282    Z=              0.5323  Tot=              4.3385
 Quadrupole moment (field-independent basis, Debye-Ang):
   XX=            -59.5415   YY=            -45.8984   ZZ=            -46.7290
   XY=              2.7123   XZ=              0.6535   YZ=             -0.5666

  Exact polarizability: 117.971   6.123  61.842  -3.961  -0.650  54.517
 Approx polarizability: 168.889  12.995  85.931 -10.699  -2.003  82.942

                      1                      2                      3
                      A                      A                      A
 Frequencies --     15.8042                65.1591                83.3349
 Red. masses --      1.0314                 4.0050                 4.1958
 Frc consts  --      0.0002                 0.0100                 0.0172
 IR Inten    --      0.0025                 4.2625                 0.6229

                      4                      5                      6
                      A                      A                      A
 Frequencies --    145.6293               176.0266               248.6150
 Red. masses --      3.2061                 3.7852                 1.1328
 Frc consts  --      0.0401                 0.0691                 0.0413
 IR Inten    --      6.2812                 9.6260                 1.5065

                      7                      8                      9
                      A                      A                      A
 Frequencies --    292.6934               307.5125               354.2027
 Red. masses --      3.9335                 3.1734                 2.9402
 Frc consts  --      0.1985                 0.1768                 0.2173
 IR Inten    --      3.5714                 3.8606                 0.9401

                     10                     11                     12
                      A                      A                      A
 Frequencies --    398.8935               477.4322               525.6292
 Red. masses --      3.0967                 6.3500                 4.7307
 Frc consts  --      0.2903                 0.8528                 0.7701
 IR Inten    --      0.6392                 1.0058                 1.3359

                     13                     14                     15
                      A                      A                      A
 Frequencies --    535.0409               749.9777               856.7922
 Red. masses --      4.8827                 3.0848                 2.7049
 Frc consts  --      0.8235                 1.0223                 1.1699
 IR Inten    --      1.6229                 0.5374                 0.5518

                     16                     17                     18
                      A                      A                      A
 Frequencies --    893.0307               958.7053              1021.2700
 Red. masses --      1.4983                 3.4092                 2.1252
 Frc consts  --      0.7040                 1.8462                 1.3060
 IR Inten    --      0.9022                 2.3115                 1.4051

                     19                     20                     21
                      A                      A                      A
 Frequencies --   1052.2891              1053.3389              1095.6146
 Red. masses --      1.4229                 1.4058                 1.8596
 Frc consts  --      0.9283                 0.9190                 1.3152
 IR Inten    --      1.1353                 1.0392                 0.6469

                     22                     23                     24
                      A                      A                      A
 Frequencies --   1104.9476              1183.9359              1241.4558
 Red. masses --      2.3180                 2.1231                 1.3271
 Frc consts  --      1.6674                 1.7534                 1.2051
 IR Inten    --      7.8450                 1.4241                 4.8346

                     25                     26                     27
                      A                      A                      A
 Frequencies --   1289.1837              1339.2612              1363.5112
 Red. masses --      1.2780                 1.2621                 1.5821
 Frc consts  --      1.2515                 1.3337                 1.7330
 IR Inten    --      6.6990                 2.0307                15.0730

                     28                     29                     30
                      A                      A                      A
 Frequencies --   1411.1538              1415.0668              1463.8393
 Red. masses --      1.2165                 1.2428                 1.0882
 Frc consts  --      1.4273                 1.4662                 1.3738
 IR Inten    --      3.2551                 6.0135                 4.7141

                     31                     32                     33
                      A                      A                      A
 Frequencies --   1477.6268              1478.2743              1494.4402
 Red. masses --      1.0394                 1.0396                 1.0460
 Frc consts  --      1.3371                 1.3385                 1.3764
 IR Inten    --      5.7166                 5.9056                 4.3550

                     34                     35                     36
                      A                      A                      A
 Frequencies --   1499.7872              2359.9304              2371.5551
 Red. masses --      1.0491                12.5989                11.8644
 Frc consts  --      1.3903                41.3411                39.3152
 IR Inten    --      3.9498                10.6966                 3.6767

                     37                     38                     39
                      A                      A                      A
 Frequencies --   3020.9558              3028.6935              3044.5852
 Red. masses --      1.0818                 1.0348                 1.0350
 Frc consts  --      5.8168                 5.5925                 5.6523
 IR Inten    --      8.2043                29.6698                15.3453

                     40                     41                     42
                      A                      A                      A
 Frequencies --   3054.6832              3090.2852              3090.6808
 Red. masses --      1.0593                 1.1001                 1.1003
 Frc consts  --      5.8237                 6.1901                 6.1925
 IR Inten    --      4.8104                 9.0085                 8.8382

                     43                     44                     45
                      A                      A                      A
 Frequencies --   3097.4336              3119.3205              3129.5452
 Red. masses --      1.1022                 1.1022                 1.1025
 Frc consts  --      6.2302                 6.3185                 6.3618
 IR Inten    --      3.1269                18.9783                16.2085

 - Thermochemistry -
 -------------------
 Temperature   298.150 Kelvin.  Pressure   1.00000 Atm.
 Atom     1 has atomic number  6 and mass  12.00000

 Molecular mass:   107.07350 amu.
 Principal axes and moments of inertia in atomic units:
                           1         2         3
     Eigenvalues --   312.064792148.878912378.85834
           X            0.99987   0.01601  -0.00099
           Y           -0.01600   0.99987   0.00142
           Z            0.00101  -0.00140   1.00000
 This molecule is an asymmetric top.
 Rotational symmetry number  1.
 Rotational temperatures (Kelvin)      0.27755     0.04031     0.03641
 Rotational constants (GHZ):           5.78323     0.83985     0.75866
 Zero-point vibrational energy     367715.0 (Joules/Mol)
                                   87.88599 (Kcal/Mol)
 Warning -- explicit consideration of  13 degrees of freedom as
           vibrations may cause significant error
 Vibrational temperatures:     22.74    93.75   119.90   209.53   253.26
          (Kelvin)            357.70   421.12   442.44   509.62   573.92
                              686.92   756.26   769.80  1079.05  1232.73
                             1284.87  1379.36  1469.38  1514.01  1515.52
                             1576.35  1589.77  1703.42  1786.18  1854.85
                             1926.90  1961.79  2030.34  2035.97  2106.14
                             2125.98  2126.91  2150.17  2157.86  3395.41
                             3412.14  4346.48  4357.61  4380.48  4395.01
                             4446.23  4446.80  4456.52  4488.01  4502.72

 Zero-point correction=                           0.140055 (Hartree/Particle)
 Thermal correction to Energy=                    0.149762
 Thermal correction to Enthalpy=                  0.150706
 Thermal correction to Gibbs Free Energy=         0.103694
 Sum of electronic and zero-point Energies=           -326.728244
 Sum of electronic and thermal Energies=              -326.718536
 Sum of electronic and thermal Enthalpies=            -326.717592
 Sum of electronic and thermal Free Energies=         -326.764605

                     E (Thermal)             CV                S
                      KCal/Mol        Cal/Mol-Kelvin    Cal/Mol-Kelvin
 Total                   93.977             32.674             98.947
 Electronic               0.000              0.000              0.000
 Translational            0.889              2.981             39.922
 Rotational               0.889              2.981             28.858
 Vibrational             92.200             26.712             30.168
 Vibration     1          0.593              1.986              7.102
 Vibration     2          0.597              1.971              4.295
 Vibration     3          0.600              1.961              3.811
 Vibration     4          0.617              1.907              2.729
 Vibration     5          0.628              1.872              2.370
 Vibration     6          0.662              1.765              1.740
 Vibration     7          0.688              1.687              1.458
 Vibration     8          0.697              1.659              1.376
 Vibration     9          0.730              1.567              1.147
 Vibration    10          0.765              1.472              0.967
 Vibration    11          0.834              1.300              0.717
 Vibration    12          0.881              1.193              0.597
 Vibration    13          0.890              1.173              0.576

 Optimization completed on the basis of negligible forces.
    -- Stationary point found.
 Normal termination of Gaussian 16 at Tue Jun  1 00:34:14 2021.
