 Gaussian 16, Revision A.03,
 Gaussian 16:  ES64L-G16RevA.03 25-Dec-2016

 -----------------------------
 # opt freq b3lyp/6-31g(2df,p)
 -----------------------------

 -------------------
 Title Card Required
 -------------------
 Symbolic Z-matrix:
 Charge =  0 Multiplicity = 1

 SCF Done:  E(RB3LYP) =  -478.040814499     A.U. after   14 cycles
 SCF Done:  E(RB3LYP) =  -478.063115951     A.U. after   12 cycles
 SCF Done:  E(RB3LYP) =  -478.064779492     A.U. after   11 cycles
 SCF Done:  E(RB3LYP) =  -478.060561734     A.U. after   14 cycles
 SCF Done:  E(RB3LYP) =  -478.065966277     A.U. after   12 cycles
 SCF Done:  E(RB3LYP) =  -478.065130783     A.U. after   12 cycles
 SCF Done:  E(RB3LYP) =  -478.065803007     A.U. after   13 cycles
 SCF Done:  E(RB3LYP) =  -478.066923953     A.U. after   11 cycles
 SCF Done:  E(RB3LYP) =  -478.068035849     A.U. after   11 cycles
 SCF Done:  E(RB3LYP) =  -478.068451225     A.U. after   12 cycles
 SCF Done:  E(RB3LYP) =  -478.071824716     A.U. after    9 cycles
 SCF Done:  E(RB3LYP) =  -478.071832194     A.U. after   10 cycles
 SCF Done:  E(RB3LYP) =  -478.071835309     A.U. after    7 cycles
 SCF Done:  E(RB3LYP) =  -478.071856560     A.U. after   11 cycles
 SCF Done:  E(RB3LYP) =  -478.071854873     A.U. after   11 cycles
 SCF Done:  E(RB3LYP) =  -478.071858790     A.U. after   10 cycles
 SCF Done:  E(RB3LYP) =  -478.071859467     A.U. after    9 cycles
 SCF Done:  E(RB3LYP) =  -478.071859544     A.U. after    8 cycles
 SCF Done:  E(RB3LYP) =  -478.071859557     A.U. after    6 cycles
 Optimization completed.
    -- Stationary point found.
 Normal termination of Gaussian 16 at Tue Jun  1 06:49:30 2021.

 ----------------------------------------------------------------------
 #N Geom=AllCheck Guess=TCheck SCRF=Check GenChk RB3LYP/6-31G(2df,p) Fr
 eq
 ----------------------------------------------------------------------

 Structure from the checkpoint file:  "CCtCCCpNpCCCdNN.chk"
 -------------------
 Title Card Required
 -------------------
 Charge =  0 Multiplicity = 1

                         Standard orientation:
 ---------------------------------------------------------------------
 Center     Atomic      Atomic             Coordinates (Angstroms)
 Number     Number       Type             X           Y           Z
 ---------------------------------------------------------------------
      1          6           0        5.573116   -0.293568   -0.211629
      2          6           0        4.206650    0.164229    0.000816
      3          6           0        3.084919    0.565872    0.181707
      4          6           0        1.707200    1.003639    0.375244
      5          6           0        0.670261   -0.013361   -0.182902
      6          7           0        0.800682   -1.361240    0.371190
      7          6           0       -0.755869    0.506974    0.034071
      8          6           0       -1.836147   -0.361518   -0.634541
      9          6           0       -3.214289    0.200389   -0.458265
     10          7           0       -4.120847   -0.440103    0.165926
     11          7           0       -5.383925    0.111766    0.221299
     12          1           0        5.649864   -0.921313   -1.106369
     13          1           0        5.935138   -0.883443    0.637822
     14          1           0        6.258530    0.551213   -0.342607
     15          1           0        1.555770    1.980188   -0.104401
     16          1           0        1.510301    1.154158    1.446541
     17          1           0        0.849483   -0.097985   -1.263317
     18          1           0        0.644760   -1.330263    1.376936
     19          1           0        1.758039   -1.680062    0.245910
     20          1           0       -0.819496    1.535221   -0.345445
     21          1           0       -0.957191    0.566675    1.113368
     22          1           0       -1.805922   -1.374289   -0.229004
     23          1           0       -1.608560   -0.436315   -1.708077
     24          1           0       -3.413692    1.197228   -0.883760
     25          1           0       -5.847328   -0.200407    1.064448
     26          1           0       -5.396108    1.130499    0.162057
 ---------------------------------------------------------------------

 SCF Done:  E(RB3LYP) =  -478.071859557     A.U. after    1 cycles

 The electronic state is 1-A.
 Alpha  occ. eigenvalues --  -14.34600 -14.34402 -14.30278 -10.21259 -10.20305
 Alpha  occ. eigenvalues --  -10.20050 -10.19928 -10.18136 -10.17528 -10.17182
 Alpha  occ. eigenvalues --  -10.16760  -0.97594  -0.88555  -0.80955  -0.78243
 Alpha  occ. eigenvalues --   -0.76166  -0.74153  -0.68245  -0.64345  -0.58059
 Alpha  occ. eigenvalues --   -0.56452  -0.50690  -0.49777  -0.48880  -0.47670
 Alpha  occ. eigenvalues --   -0.45163  -0.43800  -0.42870  -0.42582  -0.42053
 Alpha  occ. eigenvalues --   -0.41742  -0.38757  -0.38569  -0.36446  -0.34361
 Alpha  occ. eigenvalues --   -0.33532  -0.33077  -0.26067  -0.25309  -0.24766
 Alpha  occ. eigenvalues --   -0.23132  -0.21831
 Alpha virt. eigenvalues --    0.02004   0.05418   0.06197   0.08967   0.09491
 Alpha virt. eigenvalues --    0.10904   0.11292   0.12834   0.13405   0.14276
 Alpha virt. eigenvalues --    0.16048   0.16781   0.17383   0.17733   0.18281

 Mulliken charges:
               1
     1  C   -0.498619
     2  C    0.113475
     3  C    0.012410
     4  C   -0.368076
     5  C    0.035363
     6  N   -0.504315
     7  C   -0.176343
     8  C   -0.248461
     9  C    0.025143
    10  N   -0.131807
    11  N   -0.425646
    12  H    0.147316
    13  H    0.146048
    14  H    0.148285
    15  H    0.119171
    16  H    0.114590
    17  H    0.087423
    18  H    0.218287
    19  H    0.231394
    20  H    0.089296
    21  H    0.094426
    22  H    0.134162
    23  H    0.099542
    24  H    0.058731
    25  H    0.253791
    26  H    0.224417
 Sum of Mulliken charges =  -0.00000

 Dipole moment (field-independent basis, Debye):
    X=              1.2679    Y=              2.1101    Z=              0.9730  Tot=              2.6471
 Quadrupole moment (field-independent basis, Debye-Ang):
   XX=            -58.5057   YY=            -68.3301   ZZ=            -64.9210
   XY=            -11.3812   XZ=             -5.7473   YZ=             -1.2049

  Exact polarizability: 173.980  -9.077  88.769 -12.531  -2.811  80.152
 Approx polarizability: 211.282 -12.799 137.773 -23.251  -6.316 126.523

                      1                      2                      3
                      A                      A                      A
 Frequencies --     24.3493                30.6779                40.6494
 Red. masses --      1.0308                 3.9248                 3.8498
 Frc consts  --      0.0004                 0.0022                 0.0037
 IR Inten    --      0.0715                 0.1655                 0.8460

                      4                      5                      6
                      A                      A                      A
 Frequencies --     70.6492                78.3440               112.8611
 Red. masses --      3.6448                 3.0654                 2.7622
 Frc consts  --      0.0107                 0.0111                 0.0207
 IR Inten    --      1.3301                 1.8738                 1.8942

                      7                      8                      9
                      A                      A                      A
 Frequencies --    151.2718               217.8989               228.6511
 Red. masses --      2.3488                 2.9871                 3.5169
 Frc consts  --      0.0317                 0.0836                 0.1083
 IR Inten    --      4.5883                15.1309                10.8857

                     10                     11                     12
                      A                      A                      A
 Frequencies --    263.4010               279.6131               292.1567
 Red. masses --      4.9404                 3.4635                 1.0761
 Frc consts  --      0.2020                 0.1595                 0.0541
 IR Inten    --      1.0673                 5.6328                31.2462

                     13                     14                     15
                      A                      A                      A
 Frequencies --    307.8931               387.3291               405.3143
 Red. masses --      2.0745                 3.6909                 3.7075
 Frc consts  --      0.1159                 0.3262                 0.3589
 IR Inten    --     24.9017                 0.1490                 3.7507

                     16                     17                     18
                      A                      A                      A
 Frequencies --    413.4607               415.5768               471.3203
 Red. masses --      1.3601                 2.8578                 2.3237
 Frc consts  --      0.1370                 0.2908                 0.3041
 IR Inten    --     22.4383                 4.9239                 5.5963

                     19                     20                     21
                      A                      A                      A
 Frequencies --    540.5079               607.0414               751.7851
 Red. masses --      3.8184                 2.5126                 1.6430
 Frc consts  --      0.6573                 0.5455                 0.5471
 IR Inten    --      7.4350                 0.2687               315.4924

                     22                     23                     24
                      A                      A                      A
 Frequencies --    773.2399               779.8378               851.4973
 Red. masses --      3.0924                 1.3573                 3.1677
 Frc consts  --      1.0894                 0.4863                 1.3532
 IR Inten    --     10.4544                 1.8963                20.3013

                     25                     26                     27
                      A                      A                      A
 Frequencies --    886.8997               917.9783               946.2404
 Red. masses --      1.3677                 1.4868                 1.8991
 Frc consts  --      0.6339                 0.7382                 1.0018
 IR Inten    --     77.7258                57.7935                 7.1387

                     28                     29                     30
                      A                      A                      A
 Frequencies --    999.3160              1019.7381              1049.7756
 Red. masses --      2.7743                 2.0574                 1.9759
 Frc consts  --      1.6323                 1.2605                 1.2830
 IR Inten    --     13.8070                18.9172                 7.2592

                     31                     32                     33
                      A                      A                      A
 Frequencies --   1053.2025              1055.6437              1080.5979
 Red. masses --      1.4090                 1.4683                 1.9331
 Frc consts  --      0.9209                 0.9641                 1.3299
 IR Inten    --      0.7100                 1.1653                25.7086

                     34                     35                     36
                      A                      A                      A
 Frequencies --   1131.1622              1140.9927              1166.4532
 Red. masses --      2.7316                 2.1369                 3.4013
 Frc consts  --      2.0593                 1.6391                 2.7267
 IR Inten    --     29.5093                 6.1696                 0.5787

                     37                     38                     39
                      A                      A                      A
 Frequencies --   1176.5376              1207.6865              1255.7196
 Red. masses --      1.6951                 1.1946                 1.2577
 Frc consts  --      1.3825                 1.0266                 1.1684
 IR Inten    --      3.4322                16.1665                 3.6284

                     40                     41                     42
                      A                      A                      A
 Frequencies --   1276.1687              1286.9854              1311.6374
 Red. masses --      1.1900                 1.3298                 1.3815
 Frc consts  --      1.1419                 1.2978                 1.4004
 IR Inten    --     12.8627                 6.2913                 2.6435

                     43                     44                     45
                      A                      A                      A
 Frequencies --   1337.6626              1360.4743              1384.3569
 Red. masses --      1.2174                 1.3370                 1.4477
 Frc consts  --      1.2835                 1.4580                 1.6347
 IR Inten    --      0.2019                11.0214                 3.5360

                     46                     47                     48
                      A                      A                      A
 Frequencies --   1415.8240              1420.3992              1424.1035
 Red. masses --      1.2496                 1.4025                 1.5244
 Frc consts  --      1.4759                 1.6672                 1.8215
 IR Inten    --      7.4531                 5.5550                13.1044

                     49                     50                     51
                      A                      A                      A
 Frequencies --   1465.7639              1474.4556              1479.1487
 Red. masses --      1.0944                 1.0889                 1.0397
 Frc consts  --      1.3854                 1.3948                 1.3402
 IR Inten    --      2.6401                 1.1608                 5.6422

                     52                     53                     54
                      A                      A                      A
 Frequencies --   1479.7758              1492.4946              1656.2935
 Red. masses --      1.0398                 1.0986                 1.1282
 Frc consts  --      1.3415                 1.4419                 1.8235
 IR Inten    --      5.1214                 3.9587                21.3731

                     55                     56                     57
                      A                      A                      A
 Frequencies --   1659.9710              1730.0375              2366.6816
 Red. masses --      1.0900                 6.3010                11.8128
 Frc consts  --      1.7697                11.1115                38.9838
 IR Inten    --     21.1964                 2.4089                 0.1165

                     58                     59                     60
                      A                      A                      A
 Frequencies --   2981.3234              2997.9997              3001.1958
 Red. masses --      1.0823                 1.0605                 1.0678
 Frc consts  --      5.6677                 5.6161                 5.6669
 IR Inten    --     55.6407                13.7036                13.5039

                     61                     62                     63
                      A                      A                      A
 Frequencies --   3006.8727              3018.1424              3025.4604
 Red. masses --      1.0707                 1.0764                 1.0348
 Frc consts  --      5.7035                 5.7772                 5.5809
 IR Inten    --     16.6016                48.6075                37.7774

                     64                     65                     66
                      A                      A                      A
 Frequencies --   3034.7790              3050.5824              3085.2417
 Red. masses --      1.1001                 1.0991                 1.1002
 Frc consts  --      5.9693                 6.0265                 6.1703
 IR Inten    --      3.5028                63.9518                11.6456

                     67                     68                     69
                      A                      A                      A
 Frequencies --   3085.8178              3122.8826              3423.8551
 Red. masses --      1.1001                 1.0909                 1.0534
 Frc consts  --      6.1718                 6.2680                 7.2758
 IR Inten    --     10.6547                 9.5915                 7.4222

                     70                     71                     72
                      A                      A                      A
 Frequencies --   3467.2823              3548.9454              3601.0850
 Red. masses --      1.0496                 1.0908                 1.0886
 Frc consts  --      7.4345                 8.0942                 8.3174
 IR Inten    --      0.8206                 1.1369                 9.9516

 - Thermochemistry -
 -------------------
 Temperature   298.150 Kelvin.  Pressure   1.00000 Atm.
 Atom     1 has atomic number  6 and mass  12.00000

 Molecular mass:   153.12660 amu.
 Principal axes and moments of inertia in atomic units:
                           1         2         3
     Eigenvalues --   349.075266392.008726547.10147
           X            0.99997  -0.00803  -0.00226
           Y            0.00801   0.99995  -0.00651
           Z            0.00231   0.00650   0.99998
 This molecule is an asymmetric top.
 Rotational symmetry number  1.
 Rotational temperatures (Kelvin)      0.24812     0.01355     0.01323
 Rotational constants (GHZ):           5.17006     0.28234     0.27565
 Zero-point vibrational energy     592492.3 (Joules/Mol)
                                  141.60905 (Kcal/Mol)
 Warning -- explicit consideration of  20 degrees of freedom as
           vibrations may cause significant error
 Vibrational temperatures:     35.03    44.14    58.49   101.65   112.72
          (Kelvin)            162.38   217.65   313.51   328.98   378.98
                              402.30   420.35   442.99   557.28   583.16
                              594.88   597.92   678.12   777.67   873.40
                             1081.65  1112.52  1122.01  1225.11  1276.05
                             1320.77  1361.43  1437.79  1467.18  1510.39
                             1515.32  1518.84  1554.74  1627.49  1641.63
                             1678.27  1692.78  1737.59  1806.70  1836.12
                             1851.68  1887.15  1924.60  1957.42  1991.78
                             2037.05  2043.64  2048.97  2108.91  2121.41
                             2128.17  2129.07  2147.37  2383.04  2388.33
                             2489.14  3405.13  4289.46  4313.45  4318.05
                             4326.22  4342.43  4352.96  4366.37  4389.11
                             4438.97  4439.80  4493.13  4926.16  4988.65
                             5106.14  5181.16

 Zero-point correction=                           0.225668 (Hartree/Particle)
 Thermal correction to Energy=                    0.239558
 Thermal correction to Enthalpy=                  0.240502
 Thermal correction to Gibbs Free Energy=         0.183046
 Sum of electronic and zero-point Energies=           -477.846191
 Sum of electronic and thermal Energies=              -477.832301
 Sum of electronic and thermal Enthalpies=            -477.831357
 Sum of electronic and thermal Free Energies=         -477.888813

                     E (Thermal)             CV                S
                      KCal/Mol        Cal/Mol-Kelvin    Cal/Mol-Kelvin
 Total                  150.325             48.498            120.926
 Electronic               0.000              0.000              0.000
 Translational            0.889              2.981             40.988
 Rotational               0.889              2.981             31.058
 Vibrational            148.548             42.537             48.880
 Vibration     1          0.593              1.985              6.244
 Vibration     2          0.594              1.984              5.785
 Vibration     3          0.594              1.981              5.227
 Vibration     4          0.598              1.968              4.135
 Vibration     5          0.600              1.964              3.932
 Vibration     6          0.607              1.939              3.219
 Vibration     7          0.619              1.901              2.656
 Vibration     8          0.646              1.814              1.976
 Vibration     9          0.651              1.797              1.890
 Vibration    10          0.670              1.740              1.639
 Vibration    11          0.680              1.711              1.536
 Vibration    12          0.688              1.688              1.461
 Vibration    13          0.698              1.659              1.374
 Vibration    14          0.756              1.497              1.010
 Vibration    15          0.770              1.459              0.943
 Vibration    16          0.777              1.441              0.914
 Vibration    17          0.779              1.436              0.907
 Vibration    18          0.828              1.314              0.734
 Vibration    19          0.896              1.160              0.564
 Vibration    20          0.966              1.017              0.438

 Optimization completed on the basis of negligible forces.
    -- Stationary point found.
 Normal termination of Gaussian 16 at Tue Jun  1 07:32:12 2021.
