 Gaussian 16, Revision A.03,
 Gaussian 16:  ES64L-G16RevA.03 25-Dec-2016

 -----------------------------
 # opt freq b3lyp/6-31g(2df,p)
 -----------------------------

 -------------------
 Title Card Required
 -------------------
 Symbolic Z-matrix:
 Charge =  0 Multiplicity = 1

 SCF Done:  E(RB3LYP) =  -396.866998926     A.U. after   15 cycles
 SCF Done:  E(RB3LYP) =  -396.917896210     A.U. after   13 cycles
 SCF Done:  E(RB3LYP) =  -396.942608142     A.U. after   13 cycles
 SCF Done:  E(RB3LYP) =  -396.948395195     A.U. after   13 cycles
 SCF Done:  E(RB3LYP) =  -396.950519496     A.U. after   12 cycles
 SCF Done:  E(RB3LYP) =  -396.951703630     A.U. after   14 cycles
 SCF Done:  E(RB3LYP) =  -396.951894402     A.U. after   12 cycles
 SCF Done:  E(RB3LYP) =  -396.952036280     A.U. after   12 cycles
 SCF Done:  E(RB3LYP) =  -396.952044195     A.U. after    9 cycles
 SCF Done:  E(RB3LYP) =  -396.952049697     A.U. after    9 cycles
 SCF Done:  E(RB3LYP) =  -396.952050931     A.U. after    9 cycles
 SCF Done:  E(RB3LYP) =  -396.952051602     A.U. after    8 cycles
 SCF Done:  E(RB3LYP) =  -396.952051820     A.U. after    8 cycles
 Optimization completed.
    -- Stationary point found.
 Normal termination of Gaussian 16 at Tue Jun  1 22:33:32 2021.

 ----------------------------------------------------------------------
 #N Geom=AllCheck Guess=TCheck SCRF=Check GenChk RB3LYP/6-31G(2df,p) Fr
 eq
 ----------------------------------------------------------------------

 Structure from the checkpoint file:  "CdC1C2NC1N2CCtN.chk"
 -------------------
 Title Card Required
 -------------------
 Charge =  0 Multiplicity = 1

                         Standard orientation:
 ---------------------------------------------------------------------
 Center     Atomic      Atomic             Coordinates (Angstroms)
 Number     Number       Type             X           Y           Z
 ---------------------------------------------------------------------
      1          6           0        1.737909    1.891295   -0.205182
      2          6           0        1.374619    0.625131   -0.150419
      3          6           0        1.273365   -0.571603    0.778397
      4          7           0        1.655861   -1.425636   -0.399169
      5          6           0        0.616184   -0.456884   -0.897725
      6          7           0       -0.196077   -0.740475    0.372907
      7          6           0       -1.162014    0.272473    0.834038
      8          6           0       -2.394643    0.180761    0.049908
      9          7           0       -3.358883    0.121998   -0.583466
     10          1           0        2.245380    2.367658    0.626039
     11          1           0        1.568599    2.486994   -1.094920
     12          1           0        1.627209   -0.740564    1.794974
     13          1           0        1.184071   -2.330797   -0.277186
     14          1           0        0.178216   -0.489249   -1.893927
     15          1           0       -0.786261    1.306420    0.775602
     16          1           0       -1.396041    0.061293    1.883402
 ---------------------------------------------------------------------

 SCF Done:  E(RB3LYP) =  -396.952051820     A.U. after    1 cycles

 The electronic state is 1-A.
 Alpha  occ. eigenvalues --  -14.36405 -14.34493 -14.33264 -10.27789 -10.27575
 Alpha  occ. eigenvalues --  -10.26063 -10.22456 -10.22256 -10.19409  -1.04587
 Alpha  occ. eigenvalues --   -0.90849  -0.86640  -0.78394  -0.73652  -0.68120
 Alpha  occ. eigenvalues --   -0.66319  -0.54986  -0.53400  -0.51547  -0.50204
 Alpha  occ. eigenvalues --   -0.47640  -0.46018  -0.42483  -0.39907  -0.36987
 Alpha  occ. eigenvalues --   -0.35775  -0.34137  -0.33999  -0.33054  -0.29116
 Alpha  occ. eigenvalues --   -0.27433  -0.25785
 Alpha virt. eigenvalues --    0.00245   0.02466   0.03762   0.09071   0.10024
 Alpha virt. eigenvalues --    0.10440   0.10656   0.11557   0.11918   0.12888
 Alpha virt. eigenvalues --    0.14500   0.15684   0.16478   0.17669   0.20820

 Mulliken charges:
               1
     1  C   -0.528389
     2  C    0.520852
     3  C   -0.132467
     4  N   -0.290068
     5  C   -0.131391
     6  N   -0.107506
     7  C   -0.301570
     8  C    0.278396
     9  N   -0.303573
    10  H    0.122737
    11  H    0.126761
    12  H    0.105621
    13  H    0.219821
    14  H    0.118519
    15  H    0.145448
    16  H    0.156810
 Sum of Mulliken charges =  -0.00000

 Dipole moment (field-independent basis, Debye):
    X=              2.5633    Y=              0.8933    Z=              2.1679  Tot=              3.4739
 Quadrupole moment (field-independent basis, Debye-Ang):
   XX=            -70.4004   YY=            -49.9160   ZZ=            -47.4582
   XY=              1.5078   XZ=             -1.9432   YZ=             -0.2073

  Exact polarizability:  86.691   5.886  80.064   5.822  -0.714  66.505
 Approx polarizability: 127.080   9.886 125.857  13.657  -1.002 108.377

                      1                      2                      3
                      A                      A                      A
 Frequencies --     52.6995               120.2309               168.7854
 Red. masses --      5.1338                 5.9111                 3.7688
 Frc consts  --      0.0084                 0.0503                 0.0633
 IR Inten    --      5.4183                 5.2253                 1.3003

                      4                      5                      6
                      A                      A                      A
 Frequencies --    304.1924               338.0577               346.1939
 Red. masses --      4.0551                 3.4482                 2.7658
 Frc consts  --      0.2211                 0.2322                 0.1953
 IR Inten    --      1.0693                 5.8708                 4.1063

                      7                      8                      9
                      A                      A                      A
 Frequencies --    391.8868               474.9869               612.3213
 Red. masses --      3.0786                 7.0554                 4.0088
 Frc consts  --      0.2786                 0.9379                 0.8856
 IR Inten    --      0.6549                 1.8662                16.3818

                     10                     11                     12
                      A                      A                      A
 Frequencies --    693.3516               725.6783               735.0775
 Red. masses --      2.6110                 3.0814                 1.6587
 Frc consts  --      0.7395                 0.9561                 0.5280
 IR Inten    --      7.9144                 8.3933                 5.8625

                     13                     14                     15
                      A                      A                      A
 Frequencies --    765.4145               808.4403               829.6710
 Red. masses --      2.9707                 3.3631                 3.0831
 Frc consts  --      1.0254                 1.2950                 1.2504
 IR Inten    --      5.6323                10.6022                10.9536

                     16                     17                     18
                      A                      A                      A
 Frequencies --    887.3592               897.7145               917.5562
 Red. masses --      3.1470                 1.3434                 3.6196
 Frc consts  --      1.4600                 0.6379                 1.7954
 IR Inten    --     50.6567                46.2919                10.0368

                     19                     20                     21
                      A                      A                      A
 Frequencies --    968.7553              1034.1632              1077.2155
 Red. masses --      4.0100                 1.9718                 2.8560
 Frc consts  --      2.2173                 1.2425                 1.9526
 IR Inten    --     15.8419                 4.6502                26.8461

                     22                     23                     24
                      A                      A                      A
 Frequencies --   1100.0136              1128.6654              1148.0987
 Red. masses --      1.2421                 1.2449                 1.8747
 Frc consts  --      0.8855                 0.9344                 1.4559
 IR Inten    --      0.6537                 0.4096                35.4639

                     25                     26                     27
                      A                      A                      A
 Frequencies --   1154.1395              1178.6434              1225.2530
 Red. masses --      2.1000                 3.4716                 1.3737
 Frc consts  --      1.6481                 2.8415                 1.2151
 IR Inten    --      1.8128                 2.6814                26.2813

                     28                     29                     30
                      A                      A                      A
 Frequencies --   1261.5135              1308.9399              1321.3107
 Red. masses --      1.1683                 1.5821                 1.3135
 Frc consts  --      1.0955                 1.5971                 1.3511
 IR Inten    --      2.2064                30.3384                27.8926

                     31                     32                     33
                      A                      A                      A
 Frequencies --   1361.0468              1452.8911              1475.7625
 Red. masses --      1.3527                 1.1428                 1.0830
 Frc consts  --      1.4764                 1.4214                 1.3896
 IR Inten    --     10.0888                 1.1358                 3.8865

                     34                     35                     36
                      A                      A                      A
 Frequencies --   1794.8374              2366.1695              2980.9900
 Red. masses --      7.9413                12.6174                 1.0673
 Frc consts  --     15.0728                41.6209                 5.5880
 IR Inten    --     32.5317                 6.8821                21.2403

                     37                     38                     39
                      A                      A                      A
 Frequencies --   3068.0042              3131.8164              3144.9843
 Red. masses --      1.0905                 1.0934                 1.0955
 Frc consts  --      6.0474                 6.3188                 6.3840
 IR Inten    --      3.2518                35.8000                13.0518

                     40                     41                     42
                      A                      A                      A
 Frequencies --   3155.2587              3238.8805              3367.0228
 Red. masses --      1.0605                 1.1155                 1.0715
 Frc consts  --      6.2207                 6.8944                 7.1571
 IR Inten    --      1.1273                 2.5718                 1.3939

 - Thermochemistry -
 -------------------
 Temperature   298.150 Kelvin.  Pressure   1.00000 Atm.
 Atom     1 has atomic number  6 and mass  12.00000

 Molecular mass:   121.06400 amu.
 Principal axes and moments of inertia in atomic units:
                           1         2         3
     Eigenvalues --   568.361461523.967291751.40857
           X            0.99987   0.01544  -0.00366
           Y           -0.01544   0.99988   0.00241
           Z            0.00369  -0.00236   0.99999
 This molecule is an asymmetric top.
 Rotational symmetry number  1.
 Warning -- assumption of classical behavior for rotation
           may cause significant error
 Rotational temperatures (Kelvin)      0.15239     0.05683     0.04945
 Rotational constants (GHZ):           3.17534     1.18424     1.03045
 Zero-point vibrational energy     326066.1 (Joules/Mol)
                                   77.93167 (Kcal/Mol)
 Warning -- explicit consideration of   9 degrees of freedom as
           vibrations may cause significant error
 Vibrational temperatures:     75.82   172.99   242.84   437.67   486.39
          (Kelvin)            498.10   563.84   683.40   880.99   997.58
                             1044.09  1057.61  1101.26  1163.17  1193.71
                             1276.71  1291.61  1320.16  1393.82  1487.93
                             1549.87  1582.67  1623.90  1651.86  1660.55
                             1695.80  1762.87  1815.04  1883.27  1901.07
                             1958.24  2090.39  2123.29  2582.37  3404.39
                             4288.98  4414.17  4505.99  4524.93  4539.71
                             4660.03  4844.39

 Zero-point correction=                           0.124192 (Hartree/Particle)
 Thermal correction to Energy=                    0.132023
 Thermal correction to Enthalpy=                  0.132968
 Thermal correction to Gibbs Free Energy=         0.091208
 Sum of electronic and zero-point Energies=           -396.827860
 Sum of electronic and thermal Energies=              -396.820028
 Sum of electronic and thermal Enthalpies=            -396.819084
 Sum of electronic and thermal Free Energies=         -396.860844

                     E (Thermal)             CV                S
                      KCal/Mol        Cal/Mol-Kelvin    Cal/Mol-Kelvin
 Total                   82.846             29.478             87.890
 Electronic               0.000              0.000              0.000
 Translational            0.889              2.981             40.288
 Rotational               0.889              2.981             28.808
 Vibrational             81.068             23.516             18.795
 Vibration     1          0.596              1.977              4.713
 Vibration     2          0.609              1.932              3.097
 Vibration     3          0.625              1.881              2.449
 Vibration     4          0.695              1.666              1.394
 Vibration     5          0.718              1.599              1.221
 Vibration     6          0.724              1.583              1.183
 Vibration     7          0.759              1.488              0.993
 Vibration     8          0.832              1.306              0.724
 Vibration     9          0.972              1.006              0.429

 Optimization completed.
    -- Stationary point found.
 Normal termination of Gaussian 16 at Tue Jun  1 22:57:59 2021.
