 Gaussian 16, Revision A.03,
 Gaussian 16:  ES64L-G16RevA.03 25-Dec-2016

 -----------------------------
 # opt freq b3lyp/6-31g(2df,p)
 -----------------------------

 -------------------
 Title Card Required
 -------------------
 Symbolic Z-matrix:
 Charge =  0 Multiplicity = 1

 SCF Done:  E(RB3LYP) =  -365.170539934     A.U. after   12 cycles
 SCF Done:  E(RB3LYP) =  -365.193407611     A.U. after   12 cycles
 SCF Done:  E(RB3LYP) =  -365.197921871     A.U. after   11 cycles
 SCF Done:  E(RB3LYP) =  -365.199427709     A.U. after   11 cycles
 SCF Done:  E(RB3LYP) =  -365.200206734     A.U. after   11 cycles
 SCF Done:  E(RB3LYP) =  -365.201104992     A.U. after   11 cycles
 SCF Done:  E(RB3LYP) =  -365.201833742     A.U. after   10 cycles
 SCF Done:  E(RB3LYP) =  -365.202880327     A.U. after   11 cycles
 SCF Done:  E(RB3LYP) =  -365.202920093     A.U. after   10 cycles
 SCF Done:  E(RB3LYP) =  -365.203064261     A.U. after   10 cycles
 SCF Done:  E(RB3LYP) =  -365.203103819     A.U. after    9 cycles
 SCF Done:  E(RB3LYP) =  -365.203115007     A.U. after    9 cycles
 SCF Done:  E(RB3LYP) =  -365.203132739     A.U. after   10 cycles
 SCF Done:  E(RB3LYP) =  -365.203139238     A.U. after    9 cycles
 SCF Done:  E(RB3LYP) =  -365.203139462     A.U. after    7 cycles
 SCF Done:  E(RB3LYP) =  -365.203139473     A.U. after    6 cycles
 Optimization completed.
    -- Stationary point found.
 Normal termination of Gaussian 16 at Tue Jun  1 23:21:22 2021.

 ----------------------------------------------------------------------
 #N Geom=AllCheck Guess=TCheck SCRF=Check GenChk RB3LYP/6-31G(2df,p) Fr
 eq
 ----------------------------------------------------------------------

 Structure from the checkpoint file:  "CdC1OCN1CCC.chk"
 -------------------
 Title Card Required
 -------------------
 Charge =  0 Multiplicity = 1

                         Standard orientation:
 ---------------------------------------------------------------------
 Center     Atomic      Atomic             Coordinates (Angstroms)
 Number     Number       Type             X           Y           Z
 ---------------------------------------------------------------------
      1          6           0       -1.296302    1.908481   -0.103145
      2          6           0       -1.353476    0.591168    0.045559
      3          8           0       -2.446644   -0.253400   -0.060891
      4          6           0       -1.539185   -1.370907    0.018912
      5          7           0       -0.441205   -0.449081    0.313981
      6          6           0        0.868199   -0.556077   -0.315521
      7          6           0        1.952202    0.203365    0.453603
      8          6           0        3.333927    0.046517   -0.185780
      9          1           0       -2.191724    2.463843   -0.343122
     10          1           0       -0.366928    2.440567    0.034830
     11          1           0       -1.454612   -1.899260   -0.942151
     12          1           0       -1.803396   -2.065712    0.823982
     13          1           0        0.833026   -0.205419   -1.360754
     14          1           0        1.125814   -1.621825   -0.340122
     15          1           0        1.963683   -0.158901    1.487681
     16          1           0        1.686016    1.265291    0.501626
     17          1           0        3.642072   -1.004743   -0.215641
     18          1           0        4.092836    0.598711    0.375798
     19          1           0        3.342610    0.422933   -1.214639
 ---------------------------------------------------------------------

 SCF Done:  E(RB3LYP) =  -365.203139473     A.U. after    1 cycles

 The electronic state is 1-A.
 Alpha  occ. eigenvalues --  -19.16497 -14.34419 -10.27334 -10.25913 -10.22066
 Alpha  occ. eigenvalues --  -10.18658 -10.18030 -10.14829  -1.10173  -0.90383
 Alpha  occ. eigenvalues --   -0.78264  -0.75322  -0.69348  -0.65322  -0.60224
 Alpha  occ. eigenvalues --   -0.52468  -0.51477  -0.50272  -0.49009  -0.46187
 Alpha  occ. eigenvalues --   -0.42144  -0.40670  -0.39774  -0.39197  -0.37426
 Alpha  occ. eigenvalues --   -0.35370  -0.34824  -0.33948  -0.33300  -0.27042
 Alpha  occ. eigenvalues --   -0.19842
 Alpha virt. eigenvalues --    0.05877   0.06853   0.09034   0.10608   0.11812
 Alpha virt. eigenvalues --    0.13338   0.14067   0.15764   0.16243   0.16798
 Alpha virt. eigenvalues --    0.17220   0.18268   0.19395   0.21136   0.23303

 Mulliken charges:
               1
     1  C   -0.500583
     2  C    0.449649
     3  O   -0.263578
     4  C   -0.069019
     5  N   -0.148072
     6  C   -0.145956
     7  C   -0.171354
     8  C   -0.380740
     9  H    0.112769
    10  H    0.107135
    11  H    0.111057
    12  H    0.121139
    13  H    0.098951
    14  H    0.105086
    15  H    0.108388
    16  H    0.112290
    17  H    0.114942
    18  H    0.118924
    19  H    0.118972
 Sum of Mulliken charges =  -0.00000

 Dipole moment (field-independent basis, Debye):
    X=              1.8637    Y=             -1.6294    Z=             -0.4637  Tot=              2.5186
 Quadrupole moment (field-independent basis, Debye-Ang):
   XX=            -52.3351   YY=            -45.8391   ZZ=            -50.6329
   XY=              2.1731   XZ=              0.3538   YZ=              0.0428

  Exact polarizability:  81.525  -0.878  87.949   0.060  -0.992  54.918
 Approx polarizability: 100.890  -0.158 132.706   0.763  -3.599  83.086

                      1                      2                      3
                      A                      A                      A
 Frequencies --     55.2070                80.1594               118.0031
 Red. masses --      1.9247                 2.6578                 3.7526
 Frc consts  --      0.0035                 0.0101                 0.0308
 IR Inten    --      0.0701                 0.4239                 0.7001

                      4                      5                      6
                      A                      A                      A
 Frequencies --    215.3916               225.3415               237.4468
 Red. masses --      2.5252                 2.2706                 1.1523
 Frc consts  --      0.0690                 0.0679                 0.0383
 IR Inten    --      3.6219                 2.6592                 0.5929

                      7                      8                      9
                      A                      A                      A
 Frequencies --    319.8105               365.9308               433.4864
 Red. masses --      2.6957                 3.7981                 2.4295
 Frc consts  --      0.1624                 0.2997                 0.2690
 IR Inten    --      5.6609                 1.2283                 1.1200

                     10                     11                     12
                      A                      A                      A
 Frequencies --    646.7199               675.3477               731.0700
 Red. masses --      1.0819                 2.8254                 1.6838
 Frc consts  --      0.2666                 0.7593                 0.5302
 IR Inten    --      0.8419                 7.4498                61.7563

                     13                     14                     15
                      A                      A                      A
 Frequencies --    748.6247               768.2089               812.5813
 Red. masses --      1.1287                 3.5326                 3.2008
 Frc consts  --      0.3727                 1.2283                 1.2452
 IR Inten    --      2.6221                 4.3682                14.0194

                     16                     17                     18
                      A                      A                      A
 Frequencies --    885.5938               905.0690               925.6790
 Red. masses --      1.2596                 1.8358                 2.4206
 Frc consts  --      0.5820                 0.8860                 1.2220
 IR Inten    --      5.0723                 6.9654                36.4881

                     19                     20                     21
                      A                      A                      A
 Frequencies --    997.1733              1045.2675              1070.3797
 Red. masses --      5.4267                 2.9005                 2.8987
 Frc consts  --      3.1793                 1.8671                 1.9567
 IR Inten    --     25.6674                11.7968                67.2255

                     22                     23                     24
                      A                      A                      A
 Frequencies --   1094.5164              1122.2709              1140.5290
 Red. masses --      1.1689                 1.4033                 2.0273
 Frc consts  --      0.8251                 1.0414                 1.5538
 IR Inten    --      6.2484                 8.2194                 7.0114

                     25                     26                     27
                      A                      A                      A
 Frequencies --   1185.0275              1210.5131              1276.6280
 Red. masses --      2.6509                 2.3965                 1.9802
 Frc consts  --      2.1933                 2.0691                 1.9014
 IR Inten    --     15.2876                17.3753                41.4268

                     28                     29                     30
                      A                      A                      A
 Frequencies --   1290.9091              1331.8530              1338.3737
 Red. masses --      1.5516                 1.4185                 1.0905
 Frc consts  --      1.5234                 1.4825                 1.1509
 IR Inten    --      7.8753                20.8241                 5.8232

                     31                     32                     33
                      A                      A                      A
 Frequencies --   1390.4316              1413.2373              1414.1402
 Red. masses --      1.7525                 1.2796                 1.2111
 Frc consts  --      1.9962                 1.5057                 1.4270
 IR Inten    --     70.5056                 3.8694                 2.9855

                     34                     35                     36
                      A                      A                      A
 Frequencies --   1434.0325              1483.7663              1493.5365
 Red. masses --      1.4524                 1.0842                 1.0607
 Frc consts  --      1.7598                 1.4063                 1.3941
 IR Inten    --      5.6673                 0.3860                 0.2199

                     37                     38                     39
                      A                      A                      A
 Frequencies --   1500.4047              1511.0101              1537.7760
 Red. masses --      1.0400                 1.0866                 1.1067
 Frc consts  --      1.3794                 1.4617                 1.5419
 IR Inten    --      5.3766                 4.5758                22.4442

                     40                     41                     42
                      A                      A                      A
 Frequencies --   1773.2435              2962.7293              2992.2338
 Red. masses --      7.7393                 1.0681                 1.0611
 Frc consts  --     14.3380                 5.5236                 5.5974
 IR Inten    --    315.5856                40.0793                95.4911

                     43                     44                     45
                      A                      A                      A
 Frequencies --   3030.6663              3040.3359              3049.2207
 Red. masses --      1.0370                 1.0627                 1.0874
 Frc consts  --      5.6118                 5.7875                 5.9566
 IR Inten    --     21.9638                20.3186                23.3852

                     46                     47                     48
                      A                      A                      A
 Frequencies --   3062.7330              3074.8306              3100.3123
 Red. masses --      1.1059                 1.1019                 1.1031
 Frc consts  --      6.1121                 6.1383                 6.2472
 IR Inten    --     48.9061                 4.5657                57.2745

                     49                     50                     51
                      A                      A                      A
 Frequencies --   3108.4891              3193.3733              3285.6480
 Red. masses --      1.1003                 1.0595                 1.1163
 Frc consts  --      6.2642                 6.3660                 7.1000
 IR Inten    --     29.6026                 3.0609                 2.1893

 - Thermochemistry -
 -------------------
 Temperature   298.150 Kelvin.  Pressure   1.00000 Atm.
 Atom     1 has atomic number  6 and mass  12.00000

 Molecular mass:   113.08406 amu.
 Principal axes and moments of inertia in atomic units:
                           1         2         3
     Eigenvalues --   421.345101536.663651861.58610
           X            1.00000   0.00079  -0.00134
           Y           -0.00079   0.99999   0.00526
           Z            0.00134  -0.00526   0.99999
 This molecule is an asymmetric top.
 Rotational symmetry number  1.
 Rotational temperatures (Kelvin)      0.20557     0.05636     0.04653
 Rotational constants (GHZ):           4.28329     1.17445     0.96946
 Zero-point vibrational energy     431285.3 (Joules/Mol)
                                  103.07965 (Kcal/Mol)
 Warning -- explicit consideration of   9 degrees of freedom as
           vibrations may cause significant error
 Vibrational temperatures:     79.43   115.33   169.78   309.90   324.22
          (Kelvin)            341.63   460.14   526.49   623.69   930.49
                              971.67  1051.85  1077.10  1105.28  1169.12
                             1274.17  1302.19  1331.85  1434.71  1503.91
                             1540.04  1574.76  1614.70  1640.97  1704.99
                             1741.66  1836.78  1857.33  1916.24  1925.62
                             2000.52  2033.33  2034.63  2063.25  2134.81
                             2148.87  2158.75  2174.01  2212.52  2551.30
                             4262.71  4305.16  4360.45  4374.37  4387.15
                             4406.59  4424.00  4460.66  4472.42  4594.55
                             4727.31

 Zero-point correction=                           0.164268 (Hartree/Particle)
 Thermal correction to Energy=                    0.173053
 Thermal correction to Enthalpy=                  0.173997
 Thermal correction to Gibbs Free Energy=         0.130233
 Sum of electronic and zero-point Energies=           -365.038872
 Sum of electronic and thermal Energies=              -365.030086
 Sum of electronic and thermal Enthalpies=            -365.029142
 Sum of electronic and thermal Free Energies=         -365.072907

                     E (Thermal)             CV                S
                      KCal/Mol        Cal/Mol-Kelvin    Cal/Mol-Kelvin
 Total                  108.592             31.551             92.111
 Electronic               0.000              0.000              0.000
 Translational            0.889              2.981             40.085
 Rotational               0.889              2.981             28.579
 Vibrational            106.815             25.589             23.447
 Vibration     1          0.596              1.975              4.622
 Vibration     2          0.600              1.963              3.887
 Vibration     3          0.608              1.934              3.133
 Vibration     4          0.645              1.818              1.997
 Vibration     5          0.650              1.802              1.916
 Vibration     6          0.656              1.783              1.822
 Vibration     7          0.706              1.636              1.311
 Vibration     8          0.739              1.542              1.097
 Vibration     9          0.794              1.397              0.847

 Optimization completed.
    -- Stationary point found.
 Normal termination of Gaussian 16 at Tue Jun  1 23:48:06 2021.
