 Gaussian 16, Revision A.03,
 Gaussian 16:  ES64L-G16RevA.03 25-Dec-2016

 -----------------------------
 # opt freq b3lyp/6-31g(2df,p)
 -----------------------------

 -------------------
 Title Card Required
 -------------------
 Symbolic Z-matrix:
 Charge =  0 Multiplicity = 1

 SCF Done:  E(RB3LYP) =  -400.694456329     A.U. after   14 cycles
 SCF Done:  E(RB3LYP) =  -400.701806229     A.U. after   11 cycles
 SCF Done:  E(RB3LYP) =  -400.702742149     A.U. after   11 cycles
 SCF Done:  E(RB3LYP) =  -400.703375517     A.U. after   11 cycles
 SCF Done:  E(RB3LYP) =  -400.703664180     A.U. after   12 cycles
 SCF Done:  E(RB3LYP) =  -400.704119410     A.U. after   11 cycles
 SCF Done:  E(RB3LYP) =  -400.704731024     A.U. after   12 cycles
 SCF Done:  E(RB3LYP) =  -400.704963915     A.U. after   14 cycles
 SCF Done:  E(RB3LYP) =  -400.705853303     A.U. after   12 cycles
 SCF Done:  E(RB3LYP) =  -400.706724487     A.U. after   12 cycles
 SCF Done:  E(RB3LYP) =  -400.708933678     A.U. after   14 cycles
 SCF Done:  E(RB3LYP) =  -400.709710340     A.U. after   12 cycles
 SCF Done:  E(RB3LYP) =  -400.709737360     A.U. after   12 cycles
 SCF Done:  E(RB3LYP) =  -400.709785501     A.U. after   11 cycles
 SCF Done:  E(RB3LYP) =  -400.709786026     A.U. after    8 cycles
 SCF Done:  E(RB3LYP) =  -400.709786316     A.U. after    7 cycles
 SCF Done:  E(RB3LYP) =  -400.709786500     A.U. after    7 cycles
 SCF Done:  E(RB3LYP) =  -400.709786521     A.U. after    6 cycles
 SCF Done:  E(RB3LYP) =  -400.709786526     A.U. after    7 cycles
 Optimization completed.
    -- Stationary point found.
 Normal termination of Gaussian 16 at Mon May 31 17:33:52 2021.

 ----------------------------------------------------------------------
 #N Geom=AllCheck Guess=TCheck SCRF=Check GenChk RB3LYP/6-31G(2df,p) Fr
 eq
 ----------------------------------------------------------------------

 Structure from the checkpoint file:  "CdCCNdCNCpCpN.chk"
 -------------------
 Title Card Required
 -------------------
 Charge =  0 Multiplicity = 1

                         Standard orientation:
 ---------------------------------------------------------------------
 Center     Atomic      Atomic             Coordinates (Angstroms)
 Number     Number       Type             X           Y           Z
 ---------------------------------------------------------------------
      1          6           0        4.060630    0.653406    0.804917
      2          6           0        3.327310   -0.311798    0.261672
      3          6           0        2.288083   -0.108955   -0.809810
      4          7           0        1.048499   -0.782409   -0.460947
      5          6           0        0.003277   -0.064261   -0.364563
      6          7           0       -1.233548   -0.597262   -0.108758
      7          6           0       -2.352989    0.136069    0.469948
      8          6           0       -2.644105    1.431521   -0.298358
      9          7           0       -3.462291   -0.815214    0.488830
     10          1           0        4.808082    0.447835    1.564184
     11          1           0        3.947044    1.692790    0.508065
     12          1           0        3.452603   -1.343629    0.584285
     13          1           0        2.662555   -0.549130   -1.747507
     14          1           0        2.154874    0.971218   -0.997820
     15          1           0        0.005462    1.022944   -0.519523
     16          1           0       -1.214229   -1.569831    0.170411
     17          1           0       -2.156378    0.393354    1.524473
     18          1           0       -2.821063    1.212349   -1.356652
     19          1           0       -1.827782    2.156897   -0.228373
     20          1           0       -3.538628    1.904705    0.117900
     21          1           0       -3.799581   -0.959252   -0.460438
     22          1           0       -4.234821   -0.431955    1.024281
 ---------------------------------------------------------------------

 SCF Done:  E(RB3LYP) =  -400.709786526     A.U. after    1 cycles

 The electronic state is 1-A.
 Alpha  occ. eigenvalues --  -14.33509 -14.32157 -14.28904 -10.25455 -10.23683
 Alpha  occ. eigenvalues --  -10.19821 -10.18626 -10.17453 -10.16559  -0.95586
 Alpha  occ. eigenvalues --   -0.90158  -0.85126  -0.76519  -0.73504  -0.67565
 Alpha  occ. eigenvalues --   -0.61934  -0.58396  -0.54565  -0.52564  -0.48718
 Alpha  occ. eigenvalues --   -0.46901  -0.45241  -0.43685  -0.42767  -0.41481
 Alpha  occ. eigenvalues --   -0.39757  -0.39215  -0.38444  -0.37543  -0.34375
 Alpha  occ. eigenvalues --   -0.32206  -0.25633  -0.24824  -0.24003  -0.21502
 Alpha virt. eigenvalues --    0.02425   0.04349   0.07605   0.10182   0.11674
 Alpha virt. eigenvalues --    0.12630   0.13280   0.14177   0.14928   0.15465
 Alpha virt. eigenvalues --    0.15934   0.17751   0.18454   0.19855   0.20165

 Mulliken charges:
               1
     1  C   -0.321292
     2  C    0.051469
     3  C   -0.186138
     4  N   -0.256148
     5  C    0.111525
     6  N   -0.287728
     7  C    0.080890
     8  C   -0.389178
     9  N   -0.512355
    10  H    0.107305
    11  H    0.096967
    12  H    0.094604
    13  H    0.105152
    14  H    0.075507
    15  H    0.079358
    16  H    0.246827
    17  H    0.085457
    18  H    0.122577
    19  H    0.123978
    20  H    0.112109
    21  H    0.228232
    22  H    0.230884
 Sum of Mulliken charges =   0.00000

 Dipole moment (field-independent basis, Debye):
    X=             -2.7489    Y=              1.9407    Z=              0.0545  Tot=              3.3654
 Quadrupole moment (field-independent basis, Debye-Ang):
   XX=            -48.4578   YY=            -56.8034   ZZ=            -55.8731
   XY=             -1.5005   XZ=              0.3327   YZ=              0.2566

  Exact polarizability: 127.965   3.461  81.721   2.048   1.900  68.753
 Approx polarizability: 153.327   4.036 127.365   2.021   6.978 102.308

                      1                      2                      3
                      A                      A                      A
 Frequencies --     33.4808                41.9718                86.3411
 Red. masses --      2.9703                 3.8173                 2.6819
 Frc consts  --      0.0020                 0.0040                 0.0118
 IR Inten    --      0.4030                 1.6724                 0.5322

                      4                      5                      6
                      A                      A                      A
 Frequencies --    131.7959               156.0717               193.6380
 Red. masses --      2.7672                 3.0371                 1.8826
 Frc consts  --      0.0283                 0.0436                 0.0416
 IR Inten    --      1.8335                 3.5754                 8.8652

                      7                      8                      9
                      A                      A                      A
 Frequencies --    260.4872               273.3779               325.0325
 Red. masses --      1.0592                 1.3425                 3.3895
 Frc consts  --      0.0423                 0.0591                 0.2110
 IR Inten    --     11.1633                17.8184                 1.5280

                     10                     11                     12
                      A                      A                      A
 Frequencies --    358.9756               376.3342               420.5486
 Red. masses --      2.7714                 2.4742                 2.3167
 Frc consts  --      0.2104                 0.2065                 0.2414
 IR Inten    --     28.3937                 7.1421                 3.7341

                     13                     14                     15
                      A                      A                      A
 Frequencies --    478.0683               533.0604               581.3384
 Red. masses --      2.3213                 2.6619                 2.2896
 Frc consts  --      0.3126                 0.4456                 0.4559
 IR Inten    --      6.1318                 7.2726                 8.5195

                     16                     17                     18
                      A                      A                      A
 Frequencies --    667.8909               702.5808               847.2323
 Red. masses --      1.6386                 1.4561                 2.6683
 Frc consts  --      0.4307                 0.4235                 1.1285
 IR Inten    --     26.3651                94.7542                25.7619

                     19                     20                     21
                      A                      A                      A
 Frequencies --    889.6976               927.3781               943.1511
 Red. masses --      1.4056                 1.6719                 1.3280
 Frc consts  --      0.6555                 0.8472                 0.6960
 IR Inten    --    142.9775                 3.5907                36.3470

                     22                     23                     24
                      A                      A                      A
 Frequencies --    966.8036               975.4402              1013.6696
 Red. masses --      1.6325                 1.7985                 1.4767
 Frc consts  --      0.8991                 1.0082                 0.8940
 IR Inten    --      0.6405                13.5521                 5.3638

                     25                     26                     27
                      A                      A                      A
 Frequencies --   1029.2957              1040.4413              1048.7530
 Red. masses --      1.3435                 1.7473                 1.8813
 Frc consts  --      0.8386                 1.1144                 1.2191
 IR Inten    --      1.0915                25.5934                 2.5294

                     28                     29                     30
                      A                      A                      A
 Frequencies --   1133.3887              1156.4962              1185.8139
 Red. masses --      2.4074                 1.9494                 2.2039
 Frc consts  --      1.8220                 1.5362                 1.8259
 IR Inten    --     15.5108                 4.9673                35.6674

                     31                     32                     33
                      A                      A                      A
 Frequencies --   1250.7560              1263.0583              1292.4340
 Red. masses --      1.1581                 1.5918                 2.2499
 Frc consts  --      1.0674                 1.4962                 2.2143
 IR Inten    --      1.3325                24.8931               256.7854

                     34                     35                     36
                      A                      A                      A
 Frequencies --   1313.4281              1352.2924              1361.3641
 Red. masses --      1.2701                 1.2170                 1.3281
 Frc consts  --      1.2909                 1.3112                 1.4502
 IR Inten    --      0.7139                 5.7920                95.8708

                     37                     38                     39
                      A                      A                      A
 Frequencies --   1381.5135              1408.5351              1421.7269
 Red. masses --      1.2844                 1.2586                 1.3122
 Frc consts  --      1.4443                 1.4712                 1.5627
 IR Inten    --      4.1737                23.6984                21.2036

                     40                     41                     42
                      A                      A                      A
 Frequencies --   1456.7970              1471.1677              1480.4612
 Red. masses --      1.2012                 1.4328                 1.0983
 Frc consts  --      1.5020                 1.8270                 1.4183
 IR Inten    --     17.7376                15.9189                11.9493

                     43                     44                     45
                      A                      A                      A
 Frequencies --   1494.8013              1501.9738              1646.8859
 Red. masses --      1.2729                 1.0659                 1.1013
 Frc consts  --      1.6758                 1.4167                 1.7599
 IR Inten    --     15.0834                 4.2450                30.7359

                     46                     47                     48
                      A                      A                      A
 Frequencies --   1717.2163              1752.4714              2941.5940
 Red. masses --      4.9198                 6.3599                 1.0625
 Frc consts  --      8.5477                11.5081                 5.4167
 IR Inten    --     10.1359               488.5418                62.5703

                     49                     50                     51
                      A                      A                      A
 Frequencies --   2954.0441              2988.1913              3026.4501
 Red. masses --      1.0831                 1.0958                 1.0741
 Frc consts  --      5.5688                 5.7648                 5.7963
 IR Inten    --     61.1347                41.0056                17.3131

                     52                     53                     54
                      A                      A                      A
 Frequencies --   3035.7085              3107.9939              3112.7202
 Red. masses --      1.0449                 1.1006                 1.1026
 Frc consts  --      5.6733                 6.2640                 6.2945
 IR Inten    --     36.5437                34.3832                25.4852

                     55                     56                     57
                      A                      A                      A
 Frequencies --   3135.6544              3153.3444              3218.6697
 Red. masses --      1.0591                 1.0916                 1.1139
 Frc consts  --      6.1355                 6.3955                 6.7989
 IR Inten    --     12.9826                 7.5936                20.3610

                     58                     59                     60
                      A                      A                      A
 Frequencies --   3481.5994              3574.0067              3583.0259
 Red. masses --      1.0505                 1.0908                 1.0744
 Frc consts  --      7.5024                 8.2093                 8.1267
 IR Inten    --      0.0299                 0.7301                26.8267

 - Thermochemistry -
 -------------------
 Temperature   298.150 Kelvin.  Pressure   1.00000 Atm.
 Atom     1 has atomic number  6 and mass  12.00000

 Molecular mass:   127.11095 amu.
 Principal axes and moments of inertia in atomic units:
                           1         2         3
     Eigenvalues --   414.293773268.376543388.46863
           X            0.99999  -0.00341   0.00309
           Y            0.00353   0.99920  -0.03981
           Z           -0.00296   0.03982   0.99920
 This molecule is an asymmetric top.
 Rotational symmetry number  1.
 Rotational temperatures (Kelvin)      0.20906     0.02650     0.02556
 Rotational constants (GHZ):           4.35619     0.55218     0.53261
 Zero-point vibrational energy     506369.9 (Joules/Mol)
                                  121.02532 (Kcal/Mol)
 Warning -- explicit consideration of  15 degrees of freedom as
           vibrations may cause significant error
 Vibrational temperatures:     48.17    60.39   124.23   189.62   224.55
          (Kelvin)            278.60   374.78   393.33   467.65   516.49
                              541.46   605.08   687.83   766.96   836.42
                              960.95  1010.86  1218.98  1280.08  1334.29
                             1356.98  1391.01  1403.44  1458.44  1480.93
                             1496.96  1508.92  1630.69  1663.94  1706.12
                             1799.56  1817.26  1859.52  1889.73  1945.65
                             1958.70  1987.69  2026.57  2045.55  2096.01
                             2116.68  2130.05  2150.69  2161.01  2369.50
                             2470.69  2521.42  4232.30  4250.21  4299.34
                             4354.39  4367.71  4471.71  4478.51  4511.51
                             4536.96  4630.95  5009.25  5142.20  5155.18

 Zero-point correction=                           0.192866 (Hartree/Particle)
 Thermal correction to Energy=                    0.203811
 Thermal correction to Enthalpy=                  0.204755
 Thermal correction to Gibbs Free Energy=         0.155283
 Sum of electronic and zero-point Energies=           -400.516920
 Sum of electronic and thermal Energies=              -400.505975
 Sum of electronic and thermal Enthalpies=            -400.505031
 Sum of electronic and thermal Free Energies=         -400.554504

                     E (Thermal)             CV                S
                      KCal/Mol        Cal/Mol-Kelvin    Cal/Mol-Kelvin
 Total                  127.893             39.004            104.124
 Electronic               0.000              0.000              0.000
 Translational            0.889              2.981             40.433
 Rotational               0.889              2.981             29.907
 Vibrational            126.116             33.042             33.783
 Vibration     1          0.594              1.983              5.612
 Vibration     2          0.595              1.980              5.164
 Vibration     3          0.601              1.959              3.741
 Vibration     4          0.612              1.922              2.920
 Vibration     5          0.620              1.896              2.597
 Vibration     6          0.635              1.849              2.193
 Vibration     7          0.669              1.745              1.659
 Vibration     8          0.676              1.722              1.575
 Vibration     9          0.709              1.625              1.285
 Vibration    10          0.734              1.557              1.127
 Vibration    11          0.747              1.521              1.054
 Vibration    12          0.783              1.426              0.890
 Vibration    13          0.835              1.299              0.715
 Vibration    14          0.888              1.177              0.580
 Vibration    15          0.938              1.072              0.483

                           ! Non-Optimized Parameters !
 Normal termination of Gaussian 16 at Mon May 31 18:02:04 2021.
