 Gaussian 16, Revision A.03,
 Gaussian 16:  ES64L-G16RevA.03 25-Dec-2016

 -----------------------------
 # opt freq b3lyp/6-31g(2df,p)
 -----------------------------

 -------------------
 Title Card Required
 -------------------
 Symbolic Z-matrix:
 Charge =  0 Multiplicity = 1

 SCF Done:  E(RB3LYP) =  -576.538223590     A.U. after   12 cycles
 SCF Done:  E(RB3LYP) =  -576.510758933     A.U. after   12 cycles
 SCF Done:  E(RB3LYP) =  -576.545006476     A.U. after   12 cycles
 SCF Done:  E(RB3LYP) =  -576.522219018     A.U. after   11 cycles
 SCF Done:  E(RB3LYP) =  -576.549852198     A.U. after   13 cycles
 SCF Done:  E(RB3LYP) =  -576.532555559     A.U. after   11 cycles
 SCF Done:  E(RB3LYP) =  -576.551937342     A.U. after   13 cycles
 SCF Done:  E(RB3LYP) =  -576.538223590     A.U. after   12 cycles
 SCF Done:  E(RB3LYP) =  -576.545006476     A.U. after   12 cycles
 SCF Done:  E(RB3LYP) =  -576.553499983     A.U. after   13 cycles
 SCF Done:  E(RB3LYP) =  -576.554270047     A.U. after    9 cycles
 SCF Done:  E(RB3LYP) =  -576.554271125     A.U. after    7 cycles
 SCF Done:  E(RB3LYP) =  -576.554270868     A.U. after    7 cycles
 SCF Done:  E(RB3LYP) =  -576.554271162     A.U. after    6 cycles
 SCF Done:  E(RB3LYP) =  -576.554271125     A.U. after    7 cycles
 SCF Done:  E(RB3LYP) =  -576.554271167     A.U. after    6 cycles
 Optimization completed.
    -- Stationary point found.
 SCF Done:  E(RB3LYP) =  -576.554271162     A.U. after    6 cycles
 Normal termination of Gaussian 16 at Wed Jun  2 00:25:07 2021.

 ----------------------------------------------------------------------
 #N Geom=AllCheck Guess=TCheck SCRF=Check GenChk RB3LYP/6-31G(2df,p) Fr
 eq
 ----------------------------------------------------------------------

 Structure from the checkpoint file:  "CdCCN1COCN1CCC1CC1.chk"
 -------------------
 Title Card Required
 -------------------
 Charge =  0 Multiplicity = 1

 SCF Done:  E(RB3LYP) =  -576.554271167     A.U. after    1 cycles
 SCF Done:  E(RB3LYP) =  -576.554271167     A.U. after    6 cycles
 Optimization completed.
 Normal termination of Gaussian 16 at Wed Jun  2 00:35:35 2021.

 ----------------------------------------------------------------------
 #N Geom=AllCheck Guess=TCheck SCRF=Check GenChk RB3LYP/6-31G(2df,p) Fr
 eq
 ----------------------------------------------------------------------

 Structure from the checkpoint file:  "CdCCN1COCN1CCC1CC1.chk"
 -------------------
 Title Card Required
 -------------------
 Charge =  0 Multiplicity = 1

                         Standard orientation:
 ---------------------------------------------------------------------
 Center     Atomic      Atomic             Coordinates (Angstroms)
 Number     Number       Type             X           Y           Z
 ---------------------------------------------------------------------
      1          6           0        1.549263    3.202819    0.709073
      2          6           0        1.455494    2.328107   -0.285818
      3          6           0        2.264469    1.068959   -0.395221
      4          7           0        1.415671   -0.109126   -0.620897
      5          6           0        2.155878   -1.323107   -1.031374
      6          8           0        2.087387   -2.239978    0.049593
      7          6           0        1.574768   -1.494849    1.152702
      8          7           0        0.717283   -0.472645    0.583512
      9          6           0       -0.640663   -0.954009    0.279595
     10          6           0       -1.542907    0.163092   -0.242970
     11          6           0       -2.960037   -0.310737   -0.485882
     12          6           0       -3.957292   -0.356047    0.646814
     13          6           0       -4.108847    0.663497   -0.456411
     14          1           0        0.965229    4.116844    0.725532
     15          1           0        2.218329    3.040077    1.549442
     16          1           0        0.769613    2.508117   -1.111230
     17          1           0        2.914952    0.961094    0.488321
     18          1           0        2.921940    1.143744   -1.271634
     19          1           0        3.196070   -1.064055   -1.274896
     20          1           0        1.692026   -1.799690   -1.902628
     21          1           0        2.398806   -1.023547    1.708543
     22          1           0        1.027449   -2.171428    1.812371
     23          1           0       -1.051178   -1.340084    1.219171
     24          1           0       -0.626342   -1.792934   -0.435650
     25          1           0       -1.113484    0.558641   -1.169700
     26          1           0       -1.541127    0.986372    0.481518
     27          1           0       -3.045439   -1.112667   -1.216069
     28          1           0       -3.632255   -0.000414    1.619641
     29          1           0       -4.662639   -1.178703    0.689702
     30          1           0       -3.886460    1.699374   -0.221306
     31          1           0       -4.916023    0.535124   -1.169238
 ---------------------------------------------------------------------

 SCF Done:  E(RB3LYP) =  -576.554271167     A.U. after    1 cycles

 The electronic state is 1-A.
 Alpha  occ. eigenvalues --  -19.13986 -14.34894 -14.34674 -10.25112 -10.24963
 Alpha  occ. eigenvalues --  -10.21241 -10.20058 -10.18478 -10.18391 -10.17831
 Alpha  occ. eigenvalues --  -10.17794 -10.17521 -10.17264  -1.06446  -0.95465
 Alpha  occ. eigenvalues --   -0.85322  -0.84031  -0.77462  -0.74768  -0.69548
 Alpha  occ. eigenvalues --   -0.64970  -0.62972  -0.59519  -0.58754  -0.55944
 Alpha  occ. eigenvalues --   -0.55358  -0.50453  -0.50137  -0.49018  -0.47665
 Alpha  occ. eigenvalues --   -0.46685  -0.44740  -0.44391  -0.42524  -0.42269
 Alpha  occ. eigenvalues --   -0.41354  -0.39048  -0.38416  -0.36891  -0.35720
 Alpha  occ. eigenvalues --   -0.35636  -0.34496  -0.34134  -0.33219  -0.28286
 Alpha  occ. eigenvalues --   -0.27714  -0.25963  -0.25801  -0.24389  -0.22664
 Alpha virt. eigenvalues --    0.01822   0.08848   0.09827   0.10648   0.11209
 Alpha virt. eigenvalues --    0.11238   0.11728   0.12234   0.13850   0.14440
 Alpha virt. eigenvalues --    0.14870   0.15677   0.15980   0.16173   0.17275

 Mulliken charges:
               1
     1  C   -0.316093
     2  C    0.050845
     3  C   -0.189482
     4  N   -0.103368
     5  C   -0.046956
     6  O   -0.252748
     7  C   -0.055526
     8  N   -0.090377
     9  C   -0.122930
    10  C   -0.219153
    11  C    0.036585
    12  C   -0.256895
    13  C   -0.277542
    14  H    0.111833
    15  H    0.103675
    16  H    0.093656
    17  H    0.090898
    18  H    0.109728
    19  H    0.097624
    20  H    0.109699
    21  H    0.095727
    22  H    0.116630
    23  H    0.101775
    24  H    0.092280
    25  H    0.106591
    26  H    0.099764
    27  H    0.079215
    28  H    0.108634
    29  H    0.108083
    30  H    0.109495
    31  H    0.108334
 Sum of Mulliken charges =  -0.00000

 Dipole moment (field-independent basis, Debye):
    X=              0.0786    Y=              0.4036    Z=             -0.0666  Tot=              0.4165
 Quadrupole moment (field-independent basis, Debye-Ang):
   XX=            -78.4428   YY=            -82.5784   ZZ=            -76.9407
   XY=              3.2876   XZ=              0.1643   YZ=             -0.1276

  Exact polarizability: 131.149  -1.610 124.242   0.165   5.609 109.673
 Approx polarizability: 163.429  -1.912 174.865  -0.775  11.679 176.822

                      1                      2                      3
                      A                      A                      A
 Frequencies --     28.0409                41.1571                59.9990
 Red. masses --      3.4609                 2.4028                 4.0214
 Frc consts  --      0.0016                 0.0024                 0.0085
 IR Inten    --      0.5976                 0.0412                 1.2904

                      4                      5                      6
                      A                      A                      A
 Frequencies --     71.7266                82.0244                88.9216
 Red. masses --      3.0408                 2.6421                 2.7350
 Frc consts  --      0.0092                 0.0105                 0.0127
 IR Inten    --      0.8341                 0.8514                 0.2821

                      7                      8                      9
                      A                      A                      A
 Frequencies --    116.1814               175.5816               220.5620
 Red. masses --      2.7543                 2.6672                 2.3565
 Frc consts  --      0.0219                 0.0484                 0.0675
 IR Inten    --      0.2518                 2.1183                 1.4642

                     10                     11                     12
                      A                      A                      A
 Frequencies --    245.7589               290.1866               337.2485
 Red. masses --      2.5278                 2.5295                 2.6748
 Frc consts  --      0.0900                 0.1255                 0.1792
 IR Inten    --      1.0519                 4.1660                 1.0785

                     13                     14                     15
                      A                      A                      A
 Frequencies --    381.5927               395.3618               420.5551
 Red. masses --      2.7482                 2.6613                 2.3209
 Frc consts  --      0.2358                 0.2451                 0.2419
 IR Inten    --      2.5301                 1.0903                 3.2944

                     16                     17                     18
                      A                      A                      A
 Frequencies --    464.7997               525.9333               619.4683
 Red. masses --      2.4203                 2.7151                 1.6361
 Frc consts  --      0.3081                 0.4425                 0.3699
 IR Inten    --      0.2067                11.4923                 6.1560

                     19                     20                     21
                      A                      A                      A
 Frequencies --    749.0197               762.3905               775.7658
 Red. masses --      3.1651                 4.2272                 1.0745
 Frc consts  --      1.0462                 1.4476                 0.3810
 IR Inten    --     10.9795                 7.1999                 1.4050

                     22                     23                     24
                      A                      A                      A
 Frequencies --    790.6827               807.6975               829.3358
 Red. masses --      2.4500                 2.0867                 1.3838
 Frc consts  --      0.9024                 0.8021                 0.5608
 IR Inten    --     12.3060                 7.9258                 3.7938

                     25                     26                     27
                      A                      A                      A
 Frequencies --    838.7153               907.1733               923.1089
 Red. masses --      1.9816                 2.1705                 2.6205
 Frc consts  --      0.8213                 1.0524                 1.3157
 IR Inten    --      5.0532                 9.3341                 1.7401

                     28                     29                     30
                      A                      A                      A
 Frequencies --    943.9972               953.2250               959.1078
 Red. masses --      3.3015                 1.3524                 2.6556
 Frc consts  --      1.7334                 0.7240                 1.4393
 IR Inten    --     24.0203                31.8657                17.5994

                     31                     32                     33
                      A                      A                      A
 Frequencies --    962.2964               982.9006              1009.1667
 Red. masses --      1.8221                 2.5246                 2.6311
 Frc consts  --      0.9941                 1.4370                 1.5788
 IR Inten    --     24.4725                10.8028                28.5932

                     34                     35                     36
                      A                      A                      A
 Frequencies --   1037.3331              1040.2884              1049.3938
 Red. masses --      1.3074                 1.3915                 2.1616
 Frc consts  --      0.8289                 0.8872                 1.4025
 IR Inten    --      5.0573                11.2690                10.2053

                     37                     38                     39
                      A                      A                      A
 Frequencies --   1062.9448              1068.1789              1077.8870
 Red. masses --      1.7991                 2.7414                 1.4054
 Frc consts  --      1.1977                 1.8430                 0.9621
 IR Inten    --      3.4759                52.0271                 0.7303

                     40                     41                     42
                      A                      A                      A
 Frequencies --   1093.8088              1117.9525              1141.7478
 Red. masses --      3.4062                 2.2933                 1.1468
 Frc consts  --      2.4010                 1.6887                 0.8808
 IR Inten    --     48.1889                26.3662                 0.1370

                     43                     44                     45
                      A                      A                      A
 Frequencies --   1157.0483              1171.6971              1181.2973
 Red. masses --      2.0008                 1.8756                 1.8637
 Frc consts  --      1.5782                 1.5172                 1.5323
 IR Inten    --      8.5469                16.7257                 7.0082

                     46                     47                     48
                      A                      A                      A
 Frequencies --   1194.9122              1198.9507              1227.5192
 Red. masses --      1.6511                 1.3936                 1.7361
 Frc consts  --      1.3890                 1.1803                 1.5413
 IR Inten    --      1.1821                 0.5041                 0.5742

                     49                     50                     51
                      A                      A                      A
 Frequencies --   1247.2757              1260.6772              1276.7807
 Red. masses --      1.4932                 1.4557                 1.3629
 Frc consts  --      1.3686                 1.3631                 1.3090
 IR Inten    --      4.0717                 6.1975                 4.5411

                     52                     53                     54
                      A                      A                      A
 Frequencies --   1299.5066              1301.0172              1316.4133
 Red. masses --      1.4696                 1.3858                 1.2310
 Frc consts  --      1.4622                 1.3821                 1.2569
 IR Inten    --      6.3345                 2.0728                 3.7216

                     55                     56                     57
                      A                      A                      A
 Frequencies --   1325.3265              1362.2677              1371.5096
 Red. masses --      1.1072                 1.2166                 1.2699
 Frc consts  --      1.1458                 1.3302                 1.4074
 IR Inten    --      0.2113                 9.0983                27.5275

                     58                     59                     60
                      A                      A                      A
 Frequencies --   1395.6595              1415.4319              1426.3294
 Red. masses --      1.3691                 1.4791                 1.4538
 Frc consts  --      1.5712                 1.7459                 1.7426
 IR Inten    --      7.5259                 5.7877                 4.4367

                     61                     62                     63
                      A                      A                      A
 Frequencies --   1458.5239              1468.9348              1476.9121
 Red. masses --      1.1887                 1.0886                 1.1060
 Frc consts  --      1.4899                 1.3840                 1.4214
 IR Inten    --      6.5418                 1.0527                 2.0623

                     64                     65                     66
                      A                      A                      A
 Frequencies --   1486.4266              1502.3233              1509.1330
 Red. masses --      1.0966                 1.1472                 1.3000
 Frc consts  --      1.4276                 1.5255                 1.7445
 IR Inten    --      2.0998                 0.9144                 2.9014

                     67                     68                     69
                      A                      A                      A
 Frequencies --   1524.5686              1542.9977              1721.6074
 Red. masses --      1.0945                 1.0957                 4.9012
 Frc consts  --      1.4988                 1.5370                 8.5589
 IR Inten    --      0.8916                 1.5335                 3.3063

                     70                     71                     72
                      A                      A                      A
 Frequencies --   2966.3503              2969.1009              2989.8679
 Red. masses --      1.0649                 1.0688                 1.0666
 Frc consts  --      5.5210                 5.5512                 5.6177
 IR Inten    --     23.4572                39.8907                69.1367

                     73                     74                     75
                      A                      A                      A
 Frequencies --   2999.2094              3033.7044              3034.8102
 Red. masses --      1.0672                 1.0908                 1.0605
 Frc consts  --      5.6558                 5.9147                 5.7547
 IR Inten    --     76.8401                42.0844                19.1602

                     76                     77                     78
                      A                      A                      A
 Frequencies --   3047.0435              3057.3017              3081.8880
 Red. masses --      1.1043                 1.0909                 1.1014
 Frc consts  --      6.0406                 6.0080                 6.1633
 IR Inten    --     43.4895                 5.8486                23.5481

                     79                     80                     81
                      A                      A                      A
 Frequencies --   3108.2544              3125.6599              3126.6246
 Red. masses --      1.0956                 1.0517                 1.0799
 Frc consts  --      6.2362                 6.0539                 6.2197
 IR Inten    --     32.1708                23.0983                25.0469

                     82                     83                     84
                      A                      A                      A
 Frequencies --   3132.0768              3140.4501              3154.2422
 Red. masses --      1.0656                 1.0598                 1.0913
 Frc consts  --      6.1591                 6.1581                 6.3969
 IR Inten    --      7.4327                12.2418                 6.2223

                     85                     86                     87
                      A                      A                      A
 Frequencies --   3203.4972              3218.9204              3225.0109
 Red. masses --      1.1175                 1.1153                 1.1143
 Frc consts  --      6.7567                 6.8084                 6.8281
 IR Inten    --      0.4658                25.8883                14.4213

 - Thermochemistry -
 -------------------
 Temperature   298.150 Kelvin.  Pressure   1.00000 Atm.
 Atom     1 has atomic number  6 and mass  12.00000

 Molecular mass:   182.14191 amu.
 Principal axes and moments of inertia in atomic units:
                           1         2         3
     Eigenvalues --  1772.577563767.516584920.58748
           X            0.99991   0.01338   0.00050
           Y           -0.01338   0.99990   0.00474
           Z           -0.00043  -0.00475   0.99999
 This molecule is an asymmetric top.
 Rotational symmetry number  1.
 Warning -- assumption of classical behavior for rotation
           may cause significant error
 Rotational temperatures (Kelvin)      0.04886     0.02299     0.01760
 Rotational constants (GHZ):           1.01815     0.47903     0.36677
 Zero-point vibrational energy     717067.2 (Joules/Mol)
                                  171.38318 (Kcal/Mol)
 Warning -- explicit consideration of  18 degrees of freedom as
           vibrations may cause significant error
 Vibrational temperatures:     40.34    59.22    86.33   103.20   118.01
          (Kelvin)            127.94   167.16   252.62   317.34   353.59
                              417.51   485.23   549.03   568.84   605.09
                              668.74   756.70   891.28  1077.67  1096.91
                             1116.15  1137.62  1162.10  1193.23  1206.72
                             1305.22  1328.15  1358.20  1371.48  1379.94
                             1384.53  1414.17  1451.97  1492.49  1496.74
                             1509.84  1529.34  1536.87  1550.84  1573.75
                             1608.48  1642.72  1664.73  1685.81  1699.62
                             1719.21  1725.02  1766.13  1794.55  1813.83
                             1837.00  1869.70  1871.87  1894.03  1906.85
                             1960.00  1973.30  2008.04  2036.49  2052.17
                             2098.49  2113.47  2124.95  2138.64  2161.51
                             2171.31  2193.51  2220.03  2477.01  4267.92
                             4271.87  4301.75  4315.19  4364.82  4366.42
                             4384.02  4398.78  4434.15  4472.08  4497.13
                             4498.52  4506.36  4518.41  4538.25  4609.12
                             4631.31  4640.07

 Zero-point correction=                           0.273116 (Hartree/Particle)
 Thermal correction to Energy=                    0.286921
 Thermal correction to Enthalpy=                  0.287865
 Thermal correction to Gibbs Free Energy=         0.230410
 Sum of electronic and zero-point Energies=           -576.281155
 Sum of electronic and thermal Energies=              -576.267350
 Sum of electronic and thermal Enthalpies=            -576.266406
 Sum of electronic and thermal Free Energies=         -576.323861

                     E (Thermal)             CV                S
                      KCal/Mol        Cal/Mol-Kelvin    Cal/Mol-Kelvin
 Total                  180.046             50.735            120.924
 Electronic               0.000              0.000              0.000
 Translational            0.889              2.981             41.505
 Rotational               0.889              2.981             31.864
 Vibrational            178.268             44.773             47.555
 Vibration     1          0.593              1.984              5.963
 Vibration     2          0.594              1.981              5.203
 Vibration     3          0.597              1.973              4.457
 Vibration     4          0.598              1.967              4.105
 Vibration     5          0.600              1.961              3.842
 Vibration     6          0.602              1.957              3.684
 Vibration     7          0.608              1.936              3.163
 Vibration     8          0.628              1.872              2.375
 Vibration     9          0.647              1.810              1.954
 Vibration    10          0.660              1.770              1.761
 Vibration    11          0.686              1.692              1.473
 Vibration    12          0.718              1.601              1.225
 Vibration    13          0.751              1.509              1.033
 Vibration    14          0.762              1.480              0.980
 Vibration    15          0.783              1.426              0.890
 Vibration    16          0.822              1.328              0.752
 Vibration    17          0.881              1.193              0.596
 Vibration    18          0.979              0.991              0.417

    -- Stationary point found.
 Normal termination of Gaussian 16 at Wed Jun  2 02:04:39 2021.
 Optimization completed.
    -- Stationary point found.
 Normal termination of Gaussian 16 at Wed Jun  2 02:06:26 2021.
