 Gaussian 16, Revision A.03,
 Gaussian 16:  ES64L-G16RevA.03 25-Dec-2016

 -----------------------------
 # opt freq b3lyp/6-31g(2df,p)
 -----------------------------

 -------------------
 Title Card Required
 -------------------
 Symbolic Z-matrix:
 Charge =  0 Multiplicity = 1

 SCF Done:  E(RB3LYP) =  -376.161940124     A.U. after   14 cycles
 SCF Done:  E(RB3LYP) =  -376.170068411     A.U. after   12 cycles
 SCF Done:  E(RB3LYP) =  -376.170880977     A.U. after   12 cycles
 SCF Done:  E(RB3LYP) =  -376.171328035     A.U. after   11 cycles
 SCF Done:  E(RB3LYP) =  -376.171344614     A.U. after    9 cycles
 SCF Done:  E(RB3LYP) =  -376.171347145     A.U. after    8 cycles
 Optimization completed.
    -- Stationary point found.
 Normal termination of Gaussian 16 at Tue Jun  1 00:19:39 2021.

 ----------------------------------------------------------------------
 #N Geom=AllCheck Guess=TCheck SCRF=Check GenChk RB3LYP/6-31G(2df,p) Fr
 eq
 ----------------------------------------------------------------------

 Structure from the checkpoint file:  "CdCCCpdNpNNdN.chk"
 -------------------
 Title Card Required
 -------------------
 Charge =  0 Multiplicity = 1

                         Standard orientation:
 ---------------------------------------------------------------------
 Center     Atomic      Atomic             Coordinates (Angstroms)
 Number     Number       Type             X           Y           Z
 ---------------------------------------------------------------------
      1          6           0        3.633397   -0.526514   -0.000002
      2          6           0        2.478507    0.129591    0.000032
      3          6           0        1.125390   -0.534123   -0.000014
      4          6           0       -0.089265    0.390791   -0.000009
      5          7           0       -0.143946    1.657930   -0.000017
      6          7           0       -1.263520   -0.365178    0.000001
      7          7           0       -2.491212    0.184031    0.000000
      8          7           0       -3.388373   -0.689200    0.000012
      9          1           0        4.581965   -0.001471    0.000038
     10          1           0        3.682814   -1.612023   -0.000072
     11          1           0        2.500509    1.216426    0.000104
     12          1           0        1.036181   -1.194790    0.873501
     13          1           0        1.036213   -1.194736   -0.873573
     14          1           0        0.787427    2.064845   -0.000031
     15          1           0       -1.231521   -1.380995    0.000008
     16          1           0       -4.272413   -0.168807    0.000019
 ---------------------------------------------------------------------

 SCF Done:  E(RB3LYP) =  -376.171347145     A.U. after    1 cycles

 The electronic state is 1-A.
 Alpha  occ. eigenvalues --  -14.41747 -14.39050 -14.35422 -14.30187 -10.27006
 Alpha  occ. eigenvalues --  -10.21643 -10.20576 -10.19031  -1.07643  -0.94548
 Alpha  occ. eigenvalues --   -0.86830  -0.80695  -0.73705  -0.67450  -0.60800
 Alpha  occ. eigenvalues --   -0.57220  -0.52471  -0.48956  -0.47403  -0.47072
 Alpha  occ. eigenvalues --   -0.44437  -0.43211  -0.41304  -0.40628  -0.36142
 Alpha  occ. eigenvalues --   -0.33768  -0.27292  -0.27081  -0.24729  -0.24511
 Alpha virt. eigenvalues --   -0.03603  -0.00238   0.04227   0.07841   0.08770
 Alpha virt. eigenvalues --    0.10996   0.11520   0.13823   0.15617   0.17702
 Alpha virt. eigenvalues --    0.20492   0.21557   0.25078   0.27772   0.31288

 Mulliken charges:
               1
     1  C   -0.327766
     2  C    0.025705
     3  C   -0.337811
     4  C    0.383400
     5  N   -0.482679
     6  N   -0.232844
     7  N   -0.019983
     8  N   -0.335641
     9  H    0.120812
    10  H    0.107508
    11  H    0.095396
    12  H    0.143212
    13  H    0.143214
    14  H    0.225439
    15  H    0.238866
    16  H    0.253172
 Sum of Mulliken charges =  -0.00000

 Dipole moment (field-independent basis, Debye):
    X=              2.1130    Y=             -2.0061    Z=             -0.0000  Tot=              2.9136
 Quadrupole moment (field-independent basis, Debye-Ang):
   XX=            -43.0251   YY=            -49.1793   ZZ=            -48.8119
   XY=              0.9112   XZ=             -0.0001   YZ=              0.0002

  Exact polarizability: 118.740   3.000  71.095  -0.000   0.000  37.242
 Approx polarizability: 153.370   7.030 120.524  -0.001   0.001  58.746

 ******    2 imaginary frequencies (negative Signs) ******

                      1                      2                      3
                      A                      A                      A
 Frequencies --   -152.0895               -52.1423               100.9299
 Red. masses --      1.7314                 2.2467                 4.3738
 Frc consts  --      0.0236                 0.0036                 0.0263
 IR Inten    --      0.5289                 3.3999                 3.0199

                      4                      5                      6
                      A                      A                      A
 Frequencies --    139.3187               140.4797               276.6548
 Red. masses --      5.4882                 4.2068                 3.8554
 Frc consts  --      0.0628                 0.0489                 0.1739
 IR Inten    --      0.0122                 0.0080                 5.8473

                      7                      8                      9
                      A                      A                      A
 Frequencies --    367.2287               409.4733               471.1089
 Red. masses --      5.7094                 3.4423                 1.8929
 Frc consts  --      0.4536                 0.3401                 0.2475
 IR Inten    --      0.3769                 0.9198                 4.2240

                     10                     11                     12
                      A                      A                      A
 Frequencies --    543.5155               588.4007               634.3772
 Red. masses --      4.5276                 1.5694                 1.5087
 Frc consts  --      0.7880                 0.3201                 0.3577
 IR Inten    --      9.9795                63.5826                 5.7153

                     13                     14                     15
                      A                      A                      A
 Frequencies --    724.6359               817.1506               909.6500
 Red. masses --      3.2166                 1.1364                 2.5893
 Frc consts  --      0.9951                 0.4471                 1.2623
 IR Inten    --     38.9059                62.5804                11.1878

                     16                     17                     18
                      A                      A                      A
 Frequencies --    944.0223               948.1914               975.4387
 Red. masses --      1.3228                 1.2365                 1.9654
 Frc consts  --      0.6945                 0.6550                 1.1018
 IR Inten    --     32.9282                 4.3976                25.5320

                     19                     20                     21
                      A                      A                      A
 Frequencies --   1001.2241              1011.4141              1058.5316
 Red. masses --      2.4039                 1.0780                 2.4977
 Frc consts  --      1.4198                 0.6497                 1.6489
 IR Inten    --     59.4707                15.1532                50.8779

                     22                     23                     24
                      A                      A                      A
 Frequencies --   1136.6988              1158.0787              1228.5801
 Red. masses --      1.9182                 2.6862                 1.1037
 Frc consts  --      1.4603                 2.1226                 0.9815
 IR Inten    --    219.9248                98.3770                 0.0533

                     25                     26                     27
                      A                      A                      A
 Frequencies --   1258.1835              1327.4920              1370.8208
 Red. masses --      1.3952                 1.3807                 1.4676
 Frc consts  --      1.3013                 1.4335                 1.6249
 IR Inten    --    166.5719                 7.4085                27.7158

                     28                     29                     30
                      A                      A                      A
 Frequencies --   1451.7728              1460.7708              1474.2670
 Red. masses --      1.1061                 1.1930                 1.4194
 Frc consts  --      1.3736                 1.4998                 1.8176
 IR Inten    --      7.8653                 2.3872                21.1316

                     31                     32                     33
                      A                      A                      A
 Frequencies --   1531.8425              1585.6000              1714.4882
 Red. masses --      1.9781                 6.0756                 4.9525
 Frc consts  --      2.7348                 8.9997                 8.5772
 IR Inten    --    113.7526               203.9365                 3.8840

                     34                     35                     36
                      A                      A                      A
 Frequencies --   1738.2477              3009.2389              3036.1908
 Red. masses --      8.1189                 1.0594                 1.0996
 Frc consts  --     14.4534                 5.6521                 5.9726
 IR Inten    --    151.7008                14.1401                 7.3633

                     37                     38                     39
                      A                      A                      A
 Frequencies --   3142.8112              3156.0185              3228.9519
 Red. masses --      1.0604                 1.0898                 1.1139
 Frc consts  --      6.1711                 6.3956                 6.8426
 IR Inten    --      8.8067                 5.9070                11.3267

                     40                     41                     42
                      A                      A                      A
 Frequencies --   3390.0534              3507.5035              3529.2410
 Red. masses --      1.0747                 1.0754                 1.0743
 Frc consts  --      7.2769                 7.7949                 7.8841
 IR Inten    --      0.2742                13.1505                 1.2078

 - Thermochemistry -
 -------------------
 Temperature   298.150 Kelvin.  Pressure   1.00000 Atm.
 Atom     1 has atomic number  6 and mass  12.00000

 Molecular mass:   112.07490 amu.
 Principal axes and moments of inertia in atomic units:
                           1         2         3
     Eigenvalues --   253.515092080.334062322.86401
           X            1.00000  -0.00291  -0.00000
           Y            0.00291   1.00000   0.00000
           Z            0.00000  -0.00000   1.00000
 This molecule is an asymmetric top.
 Rotational symmetry number  1.
 Rotational temperatures (Kelvin)      0.34165     0.04163     0.03729
 Rotational constants (GHZ):           7.11887     0.86752     0.77695
    2 imaginary frequencies ignored.
 Zero-point vibrational energy     337936.7 (Joules/Mol)
                                   80.76880 (Kcal/Mol)
 Warning -- explicit consideration of   9 degrees of freedom as
           vibrations may cause significant error
 Vibrational temperatures:    145.22   200.45   202.12   398.04   528.36
          (Kelvin)            589.14   677.82   782.00   846.58   912.73
                             1042.59  1175.70  1308.78  1358.24  1364.24
                             1403.44  1440.54  1455.20  1522.99  1635.46
                             1666.22  1767.65  1810.25  1909.96  1972.31
                             2088.78  2101.72  2121.14  2203.98  2281.32
                             2466.77  2500.95  4329.62  4368.40  4521.80
                             4540.81  4645.74  4877.53  5046.52  5077.79

 Zero-point correction=                           0.128713 (Hartree/Particle)
 Thermal correction to Energy=                    0.136021
 Thermal correction to Enthalpy=                  0.136965
 Thermal correction to Gibbs Free Energy=         0.096619
 Sum of electronic and zero-point Energies=           -376.042634
 Sum of electronic and thermal Energies=              -376.035327
 Sum of electronic and thermal Enthalpies=            -376.034382
 Sum of electronic and thermal Free Energies=         -376.074728

                     E (Thermal)             CV                S
                      KCal/Mol        Cal/Mol-Kelvin    Cal/Mol-Kelvin
 Total                   85.354             26.702             84.914
 Electronic               0.000              0.000              0.000
 Translational            0.889              2.981             40.058
 Rotational               0.889              2.981             28.595
 Vibrational             83.577             20.740             16.261
 Vibration     1          0.604              1.948              3.436
 Vibration     2          0.615              1.914              2.813
 Vibration     3          0.615              1.913              2.797
 Vibration     4          0.678              1.717              1.554
 Vibration     5          0.740              1.540              1.091
 Vibration     6          0.774              1.450              0.928
 Vibration     7          0.828              1.314              0.734
 Vibration     8          0.899              1.154              0.558
 Vibration     9          0.946              1.057              0.470

 Optimization completed.
    -- Stationary point found.
 Normal termination of Gaussian 16 at Tue Jun  1 00:34:35 2021.
