 Gaussian 16, Revision A.03,
 Gaussian 16:  ES64L-G16RevA.03 25-Dec-2016

 -----------------------------
 # opt freq b3lyp/6-31g(2df,p)
 -----------------------------

 -------------------
 Title Card Required
 -------------------
 Symbolic Z-matrix:
 Charge =  0 Multiplicity = 1

 SCF Done:  E(RB3LYP) =  -417.918013004     A.U. after   13 cycles
 SCF Done:  E(RB3LYP) =  -417.929584043     A.U. after   11 cycles
 SCF Done:  E(RB3LYP) =  -417.932196326     A.U. after   11 cycles
 SCF Done:  E(RB3LYP) =  -417.937095217     A.U. after   12 cycles
 SCF Done:  E(RB3LYP) =  -417.940682022     A.U. after   12 cycles
 SCF Done:  E(RB3LYP) =  -417.942730272     A.U. after   12 cycles
 SCF Done:  E(RB3LYP) =  -417.943363366     A.U. after   11 cycles
 SCF Done:  E(RB3LYP) =  -417.943601293     A.U. after   11 cycles
 SCF Done:  E(RB3LYP) =  -417.943759258     A.U. after   11 cycles
 SCF Done:  E(RB3LYP) =  -417.943808783     A.U. after   10 cycles
 SCF Done:  E(RB3LYP) =  -417.943833634     A.U. after   10 cycles
 SCF Done:  E(RB3LYP) =  -417.943838249     A.U. after    8 cycles
 SCF Done:  E(RB3LYP) =  -417.943839688     A.U. after    8 cycles
 SCF Done:  E(RB3LYP) =  -417.943841148     A.U. after    8 cycles
 SCF Done:  E(RB3LYP) =  -417.943841927     A.U. after    8 cycles
 SCF Done:  E(RB3LYP) =  -417.943842426     A.U. after    8 cycles
 SCF Done:  E(RB3LYP) =  -417.943842533     A.U. after    7 cycles
 Optimization completed.
    -- Stationary point found.
 Normal termination of Gaussian 16 at Mon May 31 13:48:37 2021.

 ----------------------------------------------------------------------
 #N Geom=AllCheck Guess=TCheck SCRF=Check GenChk RB3LYP/6-31G(2df,p) Fr
 eq
 ----------------------------------------------------------------------

 Structure from the checkpoint file:  "CdCCpNpNpCNpCN.chk"
 -------------------
 Title Card Required
 -------------------
 Charge =  0 Multiplicity = 1

                         Standard orientation:
 ---------------------------------------------------------------------
 Center     Atomic      Atomic             Coordinates (Angstroms)
 Number     Number       Type             X           Y           Z
 ---------------------------------------------------------------------
      1          6           0       -3.056117    0.178943    0.551753
      2          6           0       -1.939213    0.151273   -0.169302
      3          6           0       -0.772518   -0.759660    0.123730
      4          7           0       -0.676821   -1.861728   -0.853285
      5          7           0        0.506769   -0.054966    0.098693
      6          6           0        0.525812    1.351930    0.463307
      7          7           0        0.363717    2.185303   -0.735659
      8          6           0        1.619399   -0.828449    0.623452
      9          7           0        2.856420   -0.395044   -0.029859
     10          1           0       -3.902623    0.798288    0.274025
     11          1           0       -3.170544   -0.421089    1.451052
     12          1           0       -1.826534    0.774189   -1.052951
     13          1           0       -0.954787   -1.239069    1.104042
     14          1           0       -0.574687   -1.451710   -1.779394
     15          1           0       -1.552483   -2.378755   -0.854000
     16          1           0        1.475832    1.532541    0.982326
     17          1           0       -0.290586    1.609159    1.153337
     18          1           0        1.180383    2.041571   -1.324536
     19          1           0        0.365630    3.166894   -0.466720
     20          1           0        1.373204   -1.883643    0.458882
     21          1           0        1.760807   -0.678738    1.709827
     22          1           0        2.846735   -0.716363   -0.994120
     23          1           0        3.654877   -0.832453    0.421367
 ---------------------------------------------------------------------

 SCF Done:  E(RB3LYP) =  -417.943842533     A.U. after    1 cycles

 The electronic state is 1-A.
 Alpha  occ. eigenvalues --  -14.30844 -14.30541 -14.30290 -14.29576 -10.23255
 Alpha  occ. eigenvalues --  -10.21792 -10.21537 -10.17495 -10.17164  -0.93999
 Alpha  occ. eigenvalues --   -0.87617  -0.86587  -0.82033  -0.75986  -0.65692
 Alpha  occ. eigenvalues --   -0.65633  -0.57851  -0.55186  -0.50742  -0.48981
 Alpha  occ. eigenvalues --   -0.47154  -0.45609  -0.45556  -0.43895  -0.41932
 Alpha  occ. eigenvalues --   -0.40202  -0.38626  -0.38161  -0.36624  -0.35972
 Alpha  occ. eigenvalues --   -0.34289  -0.27191  -0.24065  -0.22977  -0.22494
 Alpha  occ. eigenvalues --   -0.20911
 Alpha virt. eigenvalues --    0.02130   0.09021   0.10402   0.10823   0.12006
 Alpha virt. eigenvalues --    0.13582   0.14151   0.15370   0.16097   0.16805
 Alpha virt. eigenvalues --    0.17553   0.18209   0.19166   0.19681   0.20063

 Mulliken charges:
               1
     1  C   -0.340092
     2  C    0.014423
     3  C    0.002197
     4  N   -0.496741
     5  N   -0.033010
     6  C   -0.118144
     7  N   -0.497522
     8  C   -0.122260
     9  N   -0.504833
    10  H    0.110408
    11  H    0.099107
    12  H    0.115848
    13  H    0.059821
    14  H    0.221745
    15  H    0.222141
    16  H    0.097017
    17  H    0.096771
    18  H    0.222247
    19  H    0.215170
    20  H    0.115332
    21  H    0.076719
    22  H    0.222356
    23  H    0.221300
 Sum of Mulliken charges =  -0.00000

 Dipole moment (field-independent basis, Debye):
    X=              0.3696    Y=             -0.2916    Z=              0.1547  Tot=              0.4955
 Quadrupole moment (field-independent basis, Debye-Ang):
   XX=            -52.1773   YY=            -54.5243   ZZ=            -53.8307
   XY=              0.0079   XZ=             -0.4267   YZ=              0.5072

  Exact polarizability: 105.161  -3.840  82.676  -6.632  -1.777  75.342
 Approx polarizability: 136.352  -5.073 114.083 -13.863  -1.950 117.705

                      1                      2                      3
                      A                      A                      A
 Frequencies --     43.4712                48.6417                95.2402
 Red. masses --      3.1505                 3.6634                 3.0099
 Frc consts  --      0.0035                 0.0051                 0.0161
 IR Inten    --      1.1392                 0.5312                 1.5309

                      4                      5                      6
                      A                      A                      A
 Frequencies --    117.1096               172.1246               256.4799
 Red. masses --      2.8584                 3.0544                 1.3084
 Frc consts  --      0.0231                 0.0533                 0.0507
 IR Inten    --      1.0079                10.6063                27.9103

                      7                      8                      9
                      A                      A                      A
 Frequencies --    263.3528               277.9447               303.8913
 Red. masses --      1.2634                 1.1593                 1.3316
 Frc consts  --      0.0516                 0.0528                 0.0725
 IR Inten    --     33.0692                27.9910                13.8159

                     10                     11                     12
                      A                      A                      A
 Frequencies --    327.3803               333.8314               346.2235
 Red. masses --      2.2795                 2.1947                 2.3941
 Frc consts  --      0.1439                 0.1441                 0.1691
 IR Inten    --      1.4741                 5.7220                 1.5904

                     13                     14                     15
                      A                      A                      A
 Frequencies --    417.3103               453.3922               532.0108
 Red. masses --      3.5335                 3.5581                 2.9672
 Frc consts  --      0.3626                 0.4309                 0.4948
 IR Inten    --     11.9711                 3.4507                20.7974

                     16                     17                     18
                      A                      A                      A
 Frequencies --    599.7399               708.6409               813.2231
 Red. masses --      2.8348                 1.8038                 2.1839
 Frc consts  --      0.6007                 0.5337                 0.8509
 IR Inten    --     10.2093                15.2950                 8.6787

                     19                     20                     21
                      A                      A                      A
 Frequencies --    867.4349               875.3941               883.8177
 Red. masses --      1.4100                 1.5079                 1.4039
 Frc consts  --      0.6251                 0.6808                 0.6461
 IR Inten    --     91.0954               112.9646               130.9403

                     22                     23                     24
                      A                      A                      A
 Frequencies --    948.7889               953.8057               992.5230
 Red. masses --      1.3636                 1.7282                 1.8629
 Frc consts  --      0.7232                 0.9263                 1.0813
 IR Inten    --     34.3857                53.4053                10.3216

                     25                     26                     27
                      A                      A                      A
 Frequencies --   1008.2332              1039.2393              1060.2024
 Red. masses --      1.7478                 1.1485                 2.3397
 Frc consts  --      1.0468                 0.7308                 1.5495
 IR Inten    --     15.3410                13.5693                 3.4336

                     28                     29                     30
                      A                      A                      A
 Frequencies --   1069.8483              1084.1174              1127.3818
 Red. masses --      2.2053                 2.1829                 2.2518
 Frc consts  --      1.4871                 1.5116                 1.6862
 IR Inten    --     19.2915                21.2584                44.6266

                     31                     32                     33
                      A                      A                      A
 Frequencies --   1171.7043              1200.4799              1242.0834
 Red. masses --      1.8005                 1.5449                 1.5852
 Frc consts  --      1.4564                 1.3118                 1.4409
 IR Inten    --     72.2045                58.5580                 8.0139

                     34                     35                     36
                      A                      A                      A
 Frequencies --   1263.8410              1285.6242              1315.0929
 Red. masses --      2.1880                 1.6478                 1.2708
 Frc consts  --      2.0591                 1.6047                 1.2949
 IR Inten    --     57.2346                13.3797                 2.3981

                     37                     38                     39
                      A                      A                      A
 Frequencies --   1347.9870              1367.3766              1380.4330
 Red. masses --      1.1883                 1.3758                 1.2528
 Frc consts  --      1.2722                 1.5156                 1.4066
 IR Inten    --     15.9950                42.9095                 6.6655

                     40                     41                     42
                      A                      A                      A
 Frequencies --   1398.4958              1446.1745              1458.4409
 Red. masses --      1.2707                 1.2873                 1.1990
 Frc consts  --      1.4643                 1.5862                 1.5026
 IR Inten    --     33.8565                33.6235                23.4291

                     43                     44                     45
                      A                      A                      A
 Frequencies --   1474.2059              1504.9830              1518.1226
 Red. masses --      1.2676                 1.1176                 1.0868
 Frc consts  --      1.6232                 1.4914                 1.4758
 IR Inten    --     14.2731                 4.0341                 4.9962

                     46                     47                     48
                      A                      A                      A
 Frequencies --   1633.8723              1635.9667              1640.5838
 Red. masses --      1.1013                 1.0975                 1.0961
 Frc consts  --      1.7321                 1.7307                 1.7382
 IR Inten    --     28.1275                23.0861                36.6455

                     49                     50                     51
                      A                      A                      A
 Frequencies --   1708.8028              2914.7087              2927.4890
 Red. masses --      4.7422                 1.0812                 1.0720
 Frc consts  --      8.1585                 5.4121                 5.4128
 IR Inten    --      2.6361                41.5148               102.9935

                     52                     53                     54
                      A                      A                      A
 Frequencies --   2993.0880              3032.3644              3047.4883
 Red. masses --      1.0570                 1.1049                 1.0891
 Frc consts  --      5.5792                 5.9859                 5.9596
 IR Inten    --     61.3987                40.9327                26.1051

                     55                     56                     57
                      A                      A                      A
 Frequencies --   3134.8628              3171.2473              3218.8716
 Red. masses --      1.0601                 1.0914                 1.1134
 Frc consts  --      6.1381                 6.4668                 6.7967
 IR Inten    --      9.8800                 0.5989                14.7510

                     58                     59                     60
                      A                      A                      A
 Frequencies --   3466.7960              3469.4465              3481.2079
 Red. masses --      1.0490                 1.0490                 1.0490
 Frc consts  --      7.4279                 7.4398                 7.4900
 IR Inten    --      2.7946                 0.8231                 1.4490

                     61                     62                     63
                      A                      A                      A
 Frequencies --   3553.8519              3558.2621              3567.0896
 Red. masses --      1.0920                 1.0919                 1.0924
 Frc consts  --      8.1256                 8.1454                 8.1898
 IR Inten    --      0.5917                 0.1545                 0.3423

 - Thermochemistry -
 -------------------
 Temperature   298.150 Kelvin.  Pressure   1.00000 Atm.
 Atom     1 has atomic number  6 and mass  12.00000

 Molecular mass:   130.12185 amu.
 Principal axes and moments of inertia in atomic units:
                           1         2         3
     Eigenvalues --   846.909821552.373162067.63132
           X            0.99999  -0.00497  -0.00208
           Y            0.00496   0.99998  -0.00303
           Z            0.00209   0.00302   0.99999
 This molecule is an asymmetric top.
 Rotational symmetry number  1.
 Warning -- assumption of classical behavior for rotation
           may cause significant error
 Rotational temperatures (Kelvin)      0.10227     0.05579     0.04189
 Rotational constants (GHZ):           2.13097     1.16257     0.87285
 Zero-point vibrational energy     541620.3 (Joules/Mol)
                                  129.45035 (Kcal/Mol)
 Warning -- explicit consideration of  16 degrees of freedom as
           vibrations may cause significant error
 Vibrational temperatures:     62.55    69.98   137.03   168.49   247.65
          (Kelvin)            369.02   378.91   399.90   437.23   471.03
                              480.31   498.14   600.42   652.33   765.44
                              862.89  1019.58  1170.05  1248.05  1259.50
                             1271.62  1365.10  1372.31  1428.02  1450.62
                             1495.23  1525.39  1539.27  1559.80  1622.05
                             1685.82  1727.22  1787.08  1818.39  1849.73
                             1892.13  1939.45  1967.35  1986.14  2012.12
                             2080.72  2098.37  2121.05  2165.33  2184.24
                             2350.78  2353.79  2360.43  2458.59  4193.62
                             4212.00  4306.39  4362.90  4384.66  4510.37
                             4562.72  4631.24  4987.95  4991.76  5008.68
                             5113.20  5119.55  5132.25

 Zero-point correction=                           0.206292 (Hartree/Particle)
 Thermal correction to Energy=                    0.217537
 Thermal correction to Enthalpy=                  0.218481
 Thermal correction to Gibbs Free Energy=         0.169190
 Sum of electronic and zero-point Energies=           -417.737550
 Sum of electronic and thermal Energies=              -417.726306
 Sum of electronic and thermal Enthalpies=            -417.725361
 Sum of electronic and thermal Free Energies=         -417.774653

                     E (Thermal)             CV                S
                      KCal/Mol        Cal/Mol-Kelvin    Cal/Mol-Kelvin
 Total                  136.507             40.654            103.743
 Electronic               0.000              0.000              0.000
 Translational            0.889              2.981             40.503
 Rotational               0.889              2.981             29.387
 Vibrational            134.729             34.693             33.853
 Vibration     1          0.595              1.980              5.094
 Vibration     2          0.595              1.978              4.872
 Vibration     3          0.603              1.953              3.549
 Vibration     4          0.608              1.935              3.148
 Vibration     5          0.626              1.877              2.412
 Vibration     6          0.666              1.752              1.686
 Vibration     7          0.670              1.740              1.639
 Vibration     8          0.679              1.714              1.546
 Vibration     9          0.695              1.666              1.395
 Vibration    10          0.711              1.621              1.273
 Vibration    11          0.715              1.608              1.241
 Vibration    12          0.724              1.583              1.183
 Vibration    13          0.780              1.433              0.901
 Vibration    14          0.812              1.353              0.786
 Vibration    15          0.887              1.179              0.583
 Vibration    16          0.958              1.032              0.450

                           ! Non-Optimized Parameters !
 Normal termination of Gaussian 16 at Mon May 31 14:27:39 2021.
