 Gaussian 16, Revision A.03,
 Gaussian 16:  ES64L-G16RevA.03 25-Dec-2016

 -----------------------------
 # opt freq b3lyp/6-31g(2df,p)
 -----------------------------

 -------------------
 Title Card Required
 -------------------
 Symbolic Z-matrix:
 Charge =  0 Multiplicity = 1

 SCF Done:  E(RB3LYP) =  -423.910795359     A.U. after   13 cycles
 SCF Done:  E(RB3LYP) =  -423.916559569     A.U. after   11 cycles
 SCF Done:  E(RB3LYP) =  -423.917768961     A.U. after   11 cycles
 SCF Done:  E(RB3LYP) =  -423.918582227     A.U. after   11 cycles
 SCF Done:  E(RB3LYP) =  -423.919240938     A.U. after   12 cycles
 SCF Done:  E(RB3LYP) =  -423.919572169     A.U. after   11 cycles
 SCF Done:  E(RB3LYP) =  -423.919882354     A.U. after   11 cycles
 SCF Done:  E(RB3LYP) =  -423.919898201     A.U. after   10 cycles
 SCF Done:  E(RB3LYP) =  -423.919994124     A.U. after   10 cycles
 SCF Done:  E(RB3LYP) =  -423.920031840     A.U. after   11 cycles
 SCF Done:  E(RB3LYP) =  -423.920478394     A.U. after   11 cycles
 SCF Done:  E(RB3LYP) =  -423.917283403     A.U. after   12 cycles
 SCF Done:  E(RB3LYP) =  -423.922191694     A.U. after   12 cycles
 SCF Done:  E(RB3LYP) =  -423.922815507     A.U. after   11 cycles
 SCF Done:  E(RB3LYP) =  -423.922955892     A.U. after   11 cycles
 SCF Done:  E(RB3LYP) =  -423.923024379     A.U. after   10 cycles
 SCF Done:  E(RB3LYP) =  -423.923037804     A.U. after    9 cycles
 SCF Done:  E(RB3LYP) =  -423.923039119     A.U. after    7 cycles
 SCF Done:  E(RB3LYP) =  -423.923039345     A.U. after    7 cycles
 Optimization completed.
    -- Stationary point found.
 Normal termination of Gaussian 16 at Tue Jun  1 22:13:11 2021.

 ----------------------------------------------------------------------
 #N Geom=AllCheck Guess=TCheck SCRF=Check GenChk RB3LYP/6-31G(2df,p) Fr
 eq
 ----------------------------------------------------------------------

 Structure from the checkpoint file:  "CdCCC1CN1NCCC.chk"
 -------------------
 Title Card Required
 -------------------
 Charge =  0 Multiplicity = 1

                         Standard orientation:
 ---------------------------------------------------------------------
 Center     Atomic      Atomic             Coordinates (Angstroms)
 Number     Number       Type             X           Y           Z
 ---------------------------------------------------------------------
      1          6           0        2.149657   -2.487681   -0.468559
      2          6           0        2.219591   -1.529740    0.450052
      3          6           0        2.588621   -0.096122    0.184278
      4          6           0        1.454332    0.858480    0.503223
      5          6           0        1.347550    2.216291   -0.082449
      6          7           0        0.490327    1.124644   -0.575902
      7          7           0       -0.861494    1.257674   -0.042283
      8          6           0       -1.557055   -0.021677   -0.220480
      9          6           0       -3.018089    0.102435    0.208690
     10          6           0       -3.781265   -1.218766    0.083441
     11          1           0        1.869707   -3.504984   -0.215583
     12          1           0        2.373580   -2.291782   -1.513363
     13          1           0        1.983429   -1.769452    1.487149
     14          1           0        2.877726    0.032092   -0.863779
     15          1           0        3.457579    0.182172    0.798019
     16          1           0        1.007984    0.754148    1.490649
     17          1           0        2.082939    2.575492   -0.796569
     18          1           0        0.864761    2.978060    0.523155
     19          1           0       -1.304633    1.930261   -0.667714
     20          1           0       -1.046195   -0.765701    0.403051
     21          1           0       -1.488612   -0.385034   -1.258852
     22          1           0       -3.512379    0.869185   -0.404120
     23          1           0       -3.054241    0.465499    1.242236
     24          1           0       -3.778010   -1.584180   -0.949265
     25          1           0       -4.824463   -1.104805    0.393102
     26          1           0       -3.331051   -1.996519    0.710006
 ---------------------------------------------------------------------

 SCF Done:  E(RB3LYP) =  -423.923039345     A.U. after    1 cycles

 The electronic state is 1-A.
 Alpha  occ. eigenvalues --  -14.34377 -14.33312 -10.20816 -10.20180 -10.19419
 Alpha  occ. eigenvalues --  -10.18479 -10.18345 -10.17810 -10.17239 -10.17168
 Alpha  occ. eigenvalues --   -0.98659  -0.86131  -0.78741  -0.76377  -0.70052
 Alpha  occ. eigenvalues --   -0.66079  -0.61227  -0.58558  -0.57197  -0.55289
 Alpha  occ. eigenvalues --   -0.50393  -0.47349  -0.46443  -0.45286  -0.43891
 Alpha  occ. eigenvalues --   -0.41872  -0.40472  -0.39398  -0.38206  -0.36776
 Alpha  occ. eigenvalues --   -0.35377  -0.34538  -0.33504  -0.33166  -0.31720
 Alpha  occ. eigenvalues --   -0.31080  -0.28868  -0.25294  -0.19673
 Alpha virt. eigenvalues --    0.02293   0.09350   0.10064   0.10911   0.12113
 Alpha virt. eigenvalues --    0.12358   0.13053   0.14126   0.14460   0.15065
 Alpha virt. eigenvalues --    0.15963   0.16414   0.17486   0.18274   0.18750

 Mulliken charges:
               1
     1  C   -0.312008
     2  C    0.034206
     3  C   -0.262045
     4  C    0.070165
     5  C   -0.259255
     6  N   -0.116364
     7  N   -0.295143
     8  C   -0.082997
     9  C   -0.182789
    10  C   -0.378360
    11  H    0.108630
    12  H    0.106653
    13  H    0.084663
    14  H    0.107103
    15  H    0.104076
    16  H    0.090900
    17  H    0.111586
    18  H    0.115230
    19  H    0.221090
    20  H    0.104406
    21  H    0.088963
    22  H    0.089898
    23  H    0.106085
    24  H    0.116296
    25  H    0.112691
    26  H    0.116319
 Sum of Mulliken charges =  -0.00000

 Dipole moment (field-independent basis, Debye):
    X=             -0.1827    Y=              0.3750    Z=              0.2851  Tot=              0.5053
 Quadrupole moment (field-independent basis, Debye-Ang):
   XX=            -60.9262   YY=            -60.7826   ZZ=            -62.7227
   XY=              1.0275   XZ=              1.3531   YZ=             -1.3557

  Exact polarizability: 107.619   4.503 112.121  -0.503   3.721  85.018
 Approx polarizability: 132.145   4.002 153.768   1.693   8.333 137.963

                      1                      2                      3
                      A                      A                      A
 Frequencies --     42.9582                52.7544                69.6418
 Red. masses --      3.2159                 2.2178                 2.2267
 Frc consts  --      0.0035                 0.0036                 0.0064
 IR Inten    --      0.2517                 0.1909                 0.1252

                      4                      5                      6
                      A                      A                      A
 Frequencies --     79.7291               103.2027               147.0517
 Red. masses --      2.4939                 2.4483                 2.4161
 Frc consts  --      0.0093                 0.0154                 0.0308
 IR Inten    --      0.3069                 0.1005                 2.7195

                      7                      8                      9
                      A                      A                      A
 Frequencies --    179.9213               238.4680               303.9784
 Red. masses --      2.7262                 1.1091                 2.4490
 Frc consts  --      0.0520                 0.0372                 0.1333
 IR Inten    --      0.1653                 0.0606                 0.6820

                     10                     11                     12
                      A                      A                      A
 Frequencies --    319.9186               337.8596               394.2247
 Red. masses --      2.7598                 3.4927                 2.5795
 Frc consts  --      0.1664                 0.2349                 0.2362
 IR Inten    --      1.6273                 1.2885                 0.2659

                     13                     14                     15
                      A                      A                      A
 Frequencies --    424.8334               483.4282               510.6797
 Red. masses --      2.1922                 2.9010                 2.8230
 Frc consts  --      0.2331                 0.3995                 0.4338
 IR Inten    --      1.8043                 4.2377                 0.6695

                     16                     17                     18
                      A                      A                      A
 Frequencies --    647.2831               760.0085               772.3710
 Red. masses --      1.5471                 1.0965                 2.7328
 Frc consts  --      0.3819                 0.3732                 0.9605
 IR Inten    --     15.3793                 1.6188                 9.7184

                     19                     20                     21
                      A                      A                      A
 Frequencies --    844.4510               864.0194               886.9912
 Red. masses --      2.1516                 1.8429                 1.4275
 Frc consts  --      0.9040                 0.8106                 0.6617
 IR Inten    --     19.4561                12.1555                 5.1263

                     22                     23                     24
                      A                      A                      A
 Frequencies --    907.8181               925.5975               948.6480
 Red. masses --      1.4629                 1.6880                 1.3917
 Frc consts  --      0.7103                 0.8521                 0.7379
 IR Inten    --      7.8193                13.0593                35.7667

                     25                     26                     27
                      A                      A                      A
 Frequencies --    959.6174               973.6807              1016.0877
 Red. masses --      2.2339                 1.9179                 1.7025
 Frc consts  --      1.2120                 1.0713                 1.0356
 IR Inten    --      0.5226                16.4153                 6.1331

                     28                     29                     30
                      A                      A                      A
 Frequencies --   1040.0755              1047.1975              1066.5322
 Red. masses --      1.1217                 2.5963                 1.4305
 Frc consts  --      0.7149                 1.6775                 0.9587
 IR Inten    --      9.4182                 0.9298                 3.6480

                     31                     32                     33
                      A                      A                      A
 Frequencies --   1082.1766              1094.2977              1108.9261
 Red. masses --      1.6243                 3.0328                 1.3285
 Frc consts  --      1.1208                 2.1397                 0.9625
 IR Inten    --      2.2858                 2.6996                 2.3049

                     34                     35                     36
                      A                      A                      A
 Frequencies --   1150.6380              1175.1164              1189.3376
 Red. masses --      2.1582                 1.7081                 2.0720
 Frc consts  --      1.6835                 1.3897                 1.7269
 IR Inten    --      2.7255                 0.1493                 2.3952

                     37                     38                     39
                      A                      A                      A
 Frequencies --   1217.0112              1248.2541              1258.0921
 Red. masses --      1.8484                 1.6566                 1.3052
 Frc consts  --      1.6130                 1.5208                 1.2171
 IR Inten    --      4.2109                 1.5453                 0.9719

                     40                     41                     42
                      A                      A                      A
 Frequencies --   1284.3419              1306.2965              1316.0866
 Red. masses --      1.3680                 1.3192                 1.0979
 Frc consts  --      1.3295                 1.3263                 1.1204
 IR Inten    --      6.0138                 7.6483                 2.3651

                     43                     44                     45
                      A                      A                      A
 Frequencies --   1325.4437              1333.8547              1402.0158
 Red. masses --      1.3199                 1.2559                 1.5380
 Frc consts  --      1.3662                 1.3165                 1.7812
 IR Inten    --      3.7315                 0.7547                 0.0863

                     46                     47                     48
                      A                      A                      A
 Frequencies --   1412.7996              1421.3050              1453.2562
 Red. masses --      1.2337                 1.6698                 1.1501
 Frc consts  --      1.4509                 1.9874                 1.4311
 IR Inten    --      1.1323                 7.1289                 1.6198

                     49                     50                     51
                      A                      A                      A
 Frequencies --   1472.5299              1473.6338              1490.4599
 Red. masses --      1.1464                 1.1796                 1.0764
 Frc consts  --      1.4646                 1.5093                 1.4088
 IR Inten    --      5.5828                 8.2972                 0.8313

                     52                     53                     54
                      A                      A                      A
 Frequencies --   1492.5876              1500.1857              1505.4509
 Red. masses --      1.2652                 1.0422                 1.0706
 Frc consts  --      1.6607                 1.3820                 1.4296
 IR Inten    --      6.7900                 5.3221                 0.9067

                     55                     56                     57
                      A                      A                      A
 Frequencies --   1522.0642              1717.9249              2972.0563
 Red. masses --      1.0896                 4.8382                 1.0695
 Frc consts  --      1.4872                 8.4128                 5.5658
 IR Inten    --      7.2873                 6.8906                42.5140

                     58                     59                     60
                      A                      A                      A
 Frequencies --   3006.2508              3011.5351              3031.4800
 Red. masses --      1.0665                 1.0668                 1.0361
 Frc consts  --      5.6789                 5.7002                 5.6100
 IR Inten    --     30.2910                22.5525                27.1010

                     61                     62                     63
                      A                      A                      A
 Frequencies --   3045.1491              3063.8575              3077.3654
 Red. masses --      1.0853                 1.0984                 1.0930
 Frc consts  --      5.9297                 6.0752                 6.0988
 IR Inten    --     19.8375                19.1475                 5.7663

                     64                     65                     66
                      A                      A                      A
 Frequencies --   3098.7851              3104.5997              3111.3622
 Red. masses --      1.1021                 1.1009                 1.0516
 Frc consts  --      6.2352                 6.2521                 5.9977
 IR Inten    --     50.3319                36.0755                23.0393

                     67                     68                     69
                      A                      A                      A
 Frequencies --   3122.5657              3129.2417              3143.7239
 Red. masses --      1.0831                 1.0849                 1.0686
 Frc consts  --      6.2220                 6.2592                 6.2225
 IR Inten    --      3.8267                29.5934                 4.3024

                     70                     71                     72
                      A                      A                      A
 Frequencies --   3202.4518              3223.5289              3451.8058
 Red. masses --      1.1188                 1.1146                 1.0740
 Frc consts  --      6.7601                 6.8241                 7.5396
 IR Inten    --      9.6386                15.3008                 1.1183

 - Thermochemistry -
 -------------------
 Temperature   298.150 Kelvin.  Pressure   1.00000 Atm.
 Atom     1 has atomic number  6 and mass  12.00000

 Molecular mass:   140.13135 amu.
 Principal axes and moments of inertia in atomic units:
                           1         2         3
     Eigenvalues --  1097.251552537.078633426.64919
           X            0.99987   0.01581  -0.00181
           Y           -0.01580   0.99987   0.00433
           Z            0.00188  -0.00430   0.99999
 This molecule is an asymmetric top.
 Rotational symmetry number  1.
 Warning -- assumption of classical behavior for rotation
           may cause significant error
 Rotational temperatures (Kelvin)      0.07894     0.03414     0.02528
 Rotational constants (GHZ):           1.64478     0.71135     0.52668
 Zero-point vibrational energy     610686.9 (Joules/Mol)
                                  145.95767 (Kcal/Mol)
 Warning -- explicit consideration of  15 degrees of freedom as
           vibrations may cause significant error
 Vibrational temperatures:     61.81    75.90   100.20   114.71   148.49
          (Kelvin)            211.57   258.87   343.10   437.36   460.29
                              486.10   567.20   611.24   695.55   734.75
                              931.30  1093.48  1111.27  1214.98  1243.13
                             1276.18  1306.15  1331.73  1364.89  1380.68
                             1400.91  1461.92  1496.44  1506.68  1534.50
                             1557.01  1574.45  1595.50  1655.51  1690.73
                             1711.19  1751.01  1795.96  1810.11  1847.88
                             1879.47  1893.56  1907.02  1919.12  2017.19
                             2032.70  2044.94  2090.91  2118.64  2120.23
                             2144.44  2147.50  2158.43  2166.01  2189.91
                             2471.71  4276.13  4325.32  4332.93  4361.62
                             4381.29  4408.21  4427.64  4458.46  4466.83
                             4476.56  4492.68  4502.28  4523.12  4607.61
                             4637.94  4966.38

 Zero-point correction=                           0.232598 (Hartree/Particle)
 Thermal correction to Energy=                    0.244538
 Thermal correction to Enthalpy=                  0.245482
 Thermal correction to Gibbs Free Energy=         0.193421
 Sum of electronic and zero-point Energies=           -423.690441
 Sum of electronic and thermal Energies=              -423.678502
 Sum of electronic and thermal Enthalpies=            -423.677557
 Sum of electronic and thermal Free Energies=         -423.729619

                     E (Thermal)             CV                S
                      KCal/Mol        Cal/Mol-Kelvin    Cal/Mol-Kelvin
 Total                  153.450             42.960            109.573
 Electronic               0.000              0.000              0.000
 Translational            0.889              2.981             40.724
 Rotational               0.889              2.981             30.635
 Vibrational            151.672             36.999             38.214
 Vibration     1          0.595              1.980              5.118
 Vibration     2          0.596              1.977              4.711
 Vibration     3          0.598              1.969              4.163
 Vibration     4          0.600              1.963              3.898
 Vibration     5          0.605              1.947              3.393
 Vibration     6          0.617              1.906              2.710
 Vibration     7          0.629              1.867              2.329
 Vibration     8          0.656              1.782              1.814
 Vibration     9          0.695              1.666              1.395
 Vibration    10          0.706              1.635              1.311
 Vibration    11          0.718              1.600              1.222
 Vibration    12          0.761              1.483              0.984
 Vibration    13          0.787              1.416              0.876
 Vibration    14          0.840              1.287              0.701
 Vibration    15          0.866              1.226              0.632

                           ! Non-Optimized Parameters !
 Normal termination of Gaussian 16 at Tue Jun  1 22:55:01 2021.
