 Gaussian 16, Revision A.03,
 Gaussian 16:  ES64L-G16RevA.03 25-Dec-2016

 -----------------------------
 # opt freq b3lyp/6-31g(2df,p)
 -----------------------------

 -------------------
 Title Card Required
 -------------------
 Symbolic Z-matrix:
 Charge =  0 Multiplicity = 1

 SCF Done:  E(RB3LYP) =  -367.414790531     A.U. after   14 cycles
 SCF Done:  E(RB3LYP) =  -367.417581973     A.U. after   12 cycles
 SCF Done:  E(RB3LYP) =  -367.419360168     A.U. after   12 cycles
 SCF Done:  E(RB3LYP) =  -367.422083084     A.U. after   12 cycles
 SCF Done:  E(RB3LYP) =  -367.423447838     A.U. after   12 cycles
 SCF Done:  E(RB3LYP) =  -367.424176682     A.U. after   12 cycles
 SCF Done:  E(RB3LYP) =  -367.424457469     A.U. after   11 cycles
 SCF Done:  E(RB3LYP) =  -367.424584727     A.U. after   10 cycles
 SCF Done:  E(RB3LYP) =  -367.424621544     A.U. after   10 cycles
 SCF Done:  E(RB3LYP) =  -367.424635696     A.U. after    9 cycles
 SCF Done:  E(RB3LYP) =  -367.424659302     A.U. after   10 cycles
 SCF Done:  E(RB3LYP) =  -367.424661373     A.U. after    9 cycles
 SCF Done:  E(RB3LYP) =  -367.424661769     A.U. after    8 cycles
 SCF Done:  E(RB3LYP) =  -367.424661857     A.U. after    7 cycles
 Optimization completed.
    -- Stationary point found.
 Normal termination of Gaussian 16 at Tue Jun  1 05:33:42 2021.

 ----------------------------------------------------------------------
 #N Geom=AllCheck Guess=TCheck SCRF=Check GenChk RB3LYP/6-31G(2df,p) Fr
 eq
 ----------------------------------------------------------------------

 Structure from the checkpoint file:  "CdCCCpCCpCCtN.chk"
 -------------------
 Title Card Required
 -------------------
 Charge =  0 Multiplicity = 1

                         Standard orientation:
 ---------------------------------------------------------------------
 Center     Atomic      Atomic             Coordinates (Angstroms)
 Number     Number       Type             X           Y           Z
 ---------------------------------------------------------------------
      1          6           0       -3.440992   -0.423613    0.142434
      2          6           0       -2.298090   -0.563037   -0.522908
      3          6           0       -1.020055   -1.102898    0.053496
      4          6           0        0.239870   -0.232001   -0.163717
      5          6           0        0.205624    1.124465    0.571917
      6          6           0       -0.583449    2.230160   -0.137976
      7          6           0        1.471643   -1.064015    0.280839
      8          6           0        2.746946   -0.433521   -0.051956
      9          7           0        3.748054    0.074177   -0.327830
     10          1           0       -4.342193   -0.059628   -0.339263
     11          1           0       -3.521730   -0.671712    1.197178
     12          1           0       -2.264702   -0.304842   -1.581339
     13          1           0       -0.829283   -2.083437   -0.408464
     14          1           0       -1.150947   -1.289120    1.127544
     15          1           0        0.348469   -0.042787   -1.240060
     16          1           0        1.236271    1.473441    0.704129
     17          1           0       -0.195471    0.968397    1.582645
     18          1           0       -0.177839    2.416550   -1.138556
     19          1           0       -0.516344    3.167062    0.423770
     20          1           0       -1.640390    1.977094   -0.242887
     21          1           0        1.449763   -2.054399   -0.187834
     22          1           0        1.439031   -1.229094    1.365173
 ---------------------------------------------------------------------

 SCF Done:  E(RB3LYP) =  -367.424661857     A.U. after    1 cycles

 The electronic state is 1-A.
 Alpha  occ. eigenvalues --  -14.32429 -10.23324 -10.21781 -10.21316 -10.20107
 Alpha  occ. eigenvalues --  -10.19760 -10.18887 -10.18452 -10.17506  -0.89946
 Alpha  occ. eigenvalues --   -0.84142  -0.78691  -0.75594  -0.70974  -0.64432
 Alpha  occ. eigenvalues --   -0.58708  -0.56773  -0.51388  -0.48352  -0.46503
 Alpha  occ. eigenvalues --   -0.46156  -0.44450  -0.42451  -0.39981  -0.39633
 Alpha  occ. eigenvalues --   -0.36939  -0.35761  -0.35177  -0.34838  -0.34412
 Alpha  occ. eigenvalues --   -0.33661  -0.31847  -0.31506  -0.26281
 Alpha virt. eigenvalues --    0.00557   0.03898   0.04247   0.08299   0.09269
 Alpha virt. eigenvalues --    0.10716   0.11688   0.13914   0.14585   0.14712
 Alpha virt. eigenvalues --    0.14913   0.16625   0.16915   0.17611   0.18449

 Mulliken charges:
               1
     1  C   -0.322388
     2  C    0.029913
     3  C   -0.238534
     4  C    0.019576
     5  C   -0.178738
     6  C   -0.394594
     7  C   -0.356511
     8  C    0.262865
     9  N   -0.312858
    10  H    0.116223
    11  H    0.105315
    12  H    0.093336
    13  H    0.106956
    14  H    0.101298
    15  H    0.092610
    16  H    0.121686
    17  H    0.095464
    18  H    0.117648
    19  H    0.115291
    20  H    0.129786
    21  H    0.146347
    22  H    0.149310
 Sum of Mulliken charges =  -0.00000

 Dipole moment (field-independent basis, Debye):
    X=             -3.5469    Y=             -1.4261    Z=              0.7291  Tot=              3.8918
 Quadrupole moment (field-independent basis, Debye-Ang):
   XX=            -74.0742   YY=            -54.7113   ZZ=            -54.0309
   XY=             -3.4721   XZ=              2.6638   YZ=             -0.3057

  Exact polarizability: 117.187   0.742  78.565  -6.343  -2.335  73.224
 Approx polarizability: 158.484   6.512 111.322 -16.647  -3.850 117.261

                      1                      2                      3
                      A                      A                      A
 Frequencies --     39.8187                69.7779                90.6257
 Red. masses --      2.6087                 2.9572                 2.7799
 Frc consts  --      0.0024                 0.0085                 0.0135
 IR Inten    --      1.5368                 3.5812                 3.8544

                      4                      5                      6
                      A                      A                      A
 Frequencies --    114.7710               147.3752               208.4461
 Red. masses --      3.0038                 2.4456                 2.6268
 Frc consts  --      0.0233                 0.0313                 0.0672
 IR Inten    --      0.7178                 3.7254                 0.2737

                      7                      8                      9
                      A                      A                      A
 Frequencies --    235.0833               284.3199               311.2909
 Red. masses --      1.2557                 2.5781                 3.1180
 Frc consts  --      0.0409                 0.1228                 0.1780
 IR Inten    --      0.7966                 0.4687                 0.3326

                     10                     11                     12
                      A                      A                      A
 Frequencies --    389.3829               399.0309               408.9266
 Red. masses --      1.8687                 3.4093                 3.7463
 Frc consts  --      0.1669                 0.3198                 0.3691
 IR Inten    --      0.3720                 0.9045                 2.2820

                     13                     14                     15
                      A                      A                      A
 Frequencies --    453.1173               572.7961               649.7895
 Red. masses --      2.4429                 2.6394                 1.6698
 Frc consts  --      0.2955                 0.5102                 0.4154
 IR Inten    --      0.2977                 1.6683                 5.0259

                     16                     17                     18
                      A                      A                      A
 Frequencies --    771.8011               807.5318               891.4462
 Red. masses --      1.3177                 1.8667                 2.0909
 Frc consts  --      0.4625                 0.7172                 0.9790
 IR Inten    --      6.9709                 0.0965                 3.4656

                     19                     20                     21
                      A                      A                      A
 Frequencies --    905.5428               949.6596               952.0539
 Red. masses --      2.0349                 1.4847                 1.4446
 Frc consts  --      0.9831                 0.7889                 0.7715
 IR Inten    --      2.5147                 5.1048                29.2168

                     22                     23                     24
                      A                      A                      A
 Frequencies --    981.0389              1008.9974              1014.5895
 Red. masses --      2.0385                 1.8872                 3.6657
 Frc consts  --      1.1559                 1.1320                 2.2233
 IR Inten    --      2.6641                 1.2873                 0.5125

                     25                     26                     27
                      A                      A                      A
 Frequencies --   1042.7737              1068.2804              1105.5804
 Red. masses --      1.0963                 1.7425                 2.4600
 Frc consts  --      0.7024                 1.1717                 1.7716
 IR Inten    --      8.9603                 3.5194                 4.4592

                     28                     29                     30
                      A                      A                      A
 Frequencies --   1131.6109              1168.4633              1226.4367
 Red. masses --      1.8410                 1.8785                 1.3213
 Frc consts  --      1.3890                 1.5111                 1.1710
 IR Inten    --      0.6926                 0.4315                 1.8890

                     31                     32                     33
                      A                      A                      A
 Frequencies --   1253.4643              1282.2396              1319.0410
 Red. masses --      1.3448                 1.2048                 1.1694
 Frc consts  --      1.2449                 1.1671                 1.1987
 IR Inten    --      0.7913                 2.2283                 0.9148

                     34                     35                     36
                      A                      A                      A
 Frequencies --   1327.1878              1345.5431              1349.0192
 Red. masses --      1.2433                 1.3002                 1.2637
 Frc consts  --      1.2902                 1.3869                 1.3550
 IR Inten    --      1.4324                 0.9625                 4.2021

                     37                     38                     39
                      A                      A                      A
 Frequencies --   1380.1724              1400.8761              1414.1112
 Red. masses --      1.3993                 1.4405                 1.2257
 Frc consts  --      1.5705                 1.6655                 1.4441
 IR Inten    --      1.1245                 1.3367                 3.3568

                     40                     41                     42
                      A                      A                      A
 Frequencies --   1455.3231              1463.6117              1478.0229
 Red. masses --      1.1452                 1.1144                 1.1152
 Frc consts  --      1.4290                 1.4065                 1.4353
 IR Inten    --      0.6694                 2.5646                 7.2912

                     43                     44                     45
                      A                      A                      A
 Frequencies --   1488.5576              1499.7623              1512.6916
 Red. masses --      1.0659                 1.0456                 1.0585
 Frc consts  --      1.3916                 1.3857                 1.4271
 IR Inten    --      2.6084                 1.3354                 3.5784

                     46                     47                     48
                      A                      A                      A
 Frequencies --   1714.0916              2359.4881              2989.3559
 Red. masses --      4.7898                12.6123                 1.0641
 Frc consts  --      8.2916                41.3696                 5.6028
 IR Inten    --      7.3148                10.6340                27.1445

                     49                     50                     51
                      A                      A                      A
 Frequencies --   3012.5368              3020.1669              3035.0163
 Red. masses --      1.0713                 1.0733                 1.0626
 Frc consts  --      5.7285                 5.7678                 5.7667
 IR Inten    --      2.9514                13.5252                 9.6585

                     52                     53                     54
                      A                      A                      A
 Frequencies --   3038.3957              3045.7345              3060.1979
 Red. masses --      1.0393                 1.0923                 1.0976
 Frc consts  --      5.6529                 5.9698                 6.0562
 IR Inten    --     24.1157                28.1310                19.8265

                     55                     56                     57
                      A                      A                      A
 Frequencies --   3075.5519              3099.9583              3129.1194
 Red. masses --      1.1008                 1.1007                 1.0813
 Frc consts  --      6.1351                 6.2323                 6.2381
 IR Inten    --     10.8291                30.7294                20.4097

                     58                     59                     60
                      A                      A                      A
 Frequencies --   3132.3523              3143.6373              3225.1139
 Red. masses --      1.0973                 1.0703                 1.1143
 Frc consts  --      6.3433                 6.2319                 6.8290
 IR Inten    --     18.3015                 4.3295                13.2626

 - Thermochemistry -
 -------------------
 Temperature   298.150 Kelvin.  Pressure   1.00000 Atm.
 Atom     1 has atomic number  6 and mass  12.00000

 Molecular mass:   123.10480 amu.
 Principal axes and moments of inertia in atomic units:
                           1         2         3
     Eigenvalues --   612.196302168.824142609.27941
           X            0.99998  -0.00472   0.00356
           Y            0.00476   0.99992  -0.01164
           Z           -0.00351   0.01166   0.99993
 This molecule is an asymmetric top.
 Rotational symmetry number  1.
 Warning -- assumption of classical behavior for rotation
           may cause significant error
 Rotational temperatures (Kelvin)      0.14148     0.03994     0.03319
 Rotational constants (GHZ):           2.94798     0.83213     0.69166
 Zero-point vibrational energy     505127.4 (Joules/Mol)
                                  120.72834 (Kcal/Mol)
 Warning -- explicit consideration of  14 degrees of freedom as
           vibrations may cause significant error
 Vibrational temperatures:     57.29   100.39   130.39   165.13   212.04
          (Kelvin)            299.91   338.23   409.07   447.88   560.24
                              574.12   588.35   651.93   824.13   934.90
                             1110.45  1161.86  1282.59  1302.87  1366.35
                             1369.79  1411.50  1451.72  1459.77  1500.32
                             1537.02  1590.68  1628.14  1681.16  1764.57
                             1803.46  1844.86  1897.81  1909.53  1935.94
                             1940.94  1985.76  2015.55  2034.59  2093.89
                             2105.81  2126.55  2141.70  2157.82  2176.43
                             2466.20  3394.78  4301.02  4334.37  4345.35
                             4366.71  4371.57  4382.13  4402.94  4425.03
                             4460.15  4502.10  4506.76  4522.99  4640.22

 Zero-point correction=                           0.192393 (Hartree/Particle)
 Thermal correction to Energy=                    0.203119
 Thermal correction to Enthalpy=                  0.204063
 Thermal correction to Gibbs Free Energy=         0.155546
 Sum of electronic and zero-point Energies=           -367.232269
 Sum of electronic and thermal Energies=              -367.221543
 Sum of electronic and thermal Enthalpies=            -367.220599
 Sum of electronic and thermal Free Energies=         -367.269115

                     E (Thermal)             CV                S
                      KCal/Mol        Cal/Mol-Kelvin    Cal/Mol-Kelvin
 Total                  127.459             38.084            102.112
 Electronic               0.000              0.000              0.000
 Translational            0.889              2.981             40.338
 Rotational               0.889              2.981             29.628
 Vibrational            125.682             32.122             32.146
 Vibration     1          0.594              1.981              5.268
 Vibration     2          0.598              1.969              4.160
 Vibration     3          0.602              1.956              3.647
 Vibration     4          0.608              1.937              3.187
 Vibration     5          0.617              1.906              2.706
 Vibration     6          0.642              1.828              2.057
 Vibration     7          0.655              1.787              1.840
 Vibration     8          0.683              1.703              1.508
 Vibration     9          0.700              1.652              1.355
 Vibration    10          0.757              1.493              1.003
 Vibration    11          0.765              1.472              0.966
 Vibration    12          0.773              1.451              0.930
 Vibration    13          0.812              1.354              0.786
 Vibration    14          0.929              1.090              0.499

 Optimization completed.
    -- Stationary point found.
 Normal termination of Gaussian 16 at Tue Jun  1 06:10:29 2021.
