 Gaussian 16, Revision A.03,
 Gaussian 16:  ES64L-G16RevA.03 25-Dec-2016

 -----------------------------
 # opt freq b3lyp/6-31g(2df,p)
 -----------------------------

 -------------------
 Title Card Required
 -------------------
 Symbolic Z-matrix:
 Charge =  0 Multiplicity = 1

 SCF Done:  E(RB3LYP) =  -385.852552545     A.U. after   12 cycles
 SCF Done:  E(RB3LYP) =  -385.861757943     A.U. after   12 cycles
 SCF Done:  E(RB3LYP) =  -385.866525087     A.U. after   10 cycles
 SCF Done:  E(RB3LYP) =  -385.868547919     A.U. after   11 cycles
 SCF Done:  E(RB3LYP) =  -385.869427758     A.U. after   10 cycles
 SCF Done:  E(RB3LYP) =  -385.870324884     A.U. after   11 cycles
 SCF Done:  E(RB3LYP) =  -385.870638240     A.U. after   12 cycles
 SCF Done:  E(RB3LYP) =  -385.870846502     A.U. after   11 cycles
 SCF Done:  E(RB3LYP) =  -385.872010244     A.U. after   11 cycles
 SCF Done:  E(RB3LYP) =  -385.872946662     A.U. after   11 cycles
 SCF Done:  E(RB3LYP) =  -385.872939397     A.U. after   10 cycles
 SCF Done:  E(RB3LYP) =  -385.873298097     A.U. after   10 cycles
 SCF Done:  E(RB3LYP) =  -385.873177890     A.U. after   10 cycles
 SCF Done:  E(RB3LYP) =  -385.873307975     A.U. after   10 cycles
 SCF Done:  E(RB3LYP) =  -385.873282403     A.U. after    9 cycles
 SCF Done:  E(RB3LYP) =  -385.873310821     A.U. after    9 cycles
 SCF Done:  E(RB3LYP) =  -385.873311306     A.U. after    7 cycles
 SCF Done:  E(RB3LYP) =  -385.873311357     A.U. after    7 cycles
 SCF Done:  E(RB3LYP) =  -385.873311544     A.U. after    7 cycles
 Optimization completed.
    -- Stationary point found.
 Normal termination of Gaussian 16 at Mon May 31 22:03:42 2021.

 ----------------------------------------------------------------------
 #N Geom=AllCheck Guess=TCheck SCRF=Check GenChk RB3LYP/6-31G(2df,p) Fr
 eq
 ----------------------------------------------------------------------

 Structure from the checkpoint file:  "CdCCNCpCCpCN.chk"
 -------------------
 Title Card Required
 -------------------
 Charge =  0 Multiplicity = 1

                         Standard orientation:
 ---------------------------------------------------------------------
 Center     Atomic      Atomic             Coordinates (Angstroms)
 Number     Number       Type             X           Y           Z
 ---------------------------------------------------------------------
      1          6           0        3.949597   -0.450967    0.420703
      2          6           0        2.912399   -0.237313   -0.382193
      3          6           0        1.592598    0.333046    0.051962
      4          7           0        0.504755   -0.567419   -0.327270
      5          6           0       -0.838302   -0.183253    0.118619
      6          6           0       -1.331868    1.112261   -0.562822
      7          6           0       -1.156669    2.393487    0.261518
      8          6           0       -1.774103   -1.363003   -0.194235
      9          7           0       -3.108033   -1.138875    0.363940
     10          1           0        4.885196   -0.859261    0.053025
     11          1           0        3.907225   -0.216071    1.480894
     12          1           0        2.977478   -0.490584   -1.439023
     13          1           0        1.435010    1.291045   -0.459918
     14          1           0        1.619827    0.555024    1.135517
     15          1           0        0.719038   -1.488227    0.045311
     16          1           0       -0.867621   -0.023000    1.217083
     17          1           0       -2.399227    0.987096   -0.768795
     18          1           0       -0.822908    1.200406   -1.530131
     19          1           0       -1.715258    2.328035    1.201715
     20          1           0       -1.535938    3.262880   -0.285590
     21          1           0       -0.111351    2.594123    0.515725
     22          1           0       -1.297895   -2.294744    0.161652
     23          1           0       -1.866221   -1.454420   -1.282607
     24          1           0       -3.079283   -1.216364    1.376477
     25          1           0       -3.747036   -1.857433    0.040655
 ---------------------------------------------------------------------

 SCF Done:  E(RB3LYP) =  -385.873311544     A.U. after    1 cycles

 The electronic state is 1-A.
 Alpha  occ. eigenvalues --  -14.30865 -14.30613 -10.20262 -10.20139 -10.20053
 Alpha  occ. eigenvalues --  -10.18248 -10.17484 -10.16462 -10.16423  -0.90386
 Alpha  occ. eigenvalues --   -0.87255  -0.78083  -0.75121  -0.70202  -0.64262
 Alpha  occ. eigenvalues --   -0.61717  -0.56153  -0.55070  -0.49893  -0.47514
 Alpha  occ. eigenvalues --   -0.46700  -0.44048  -0.43153  -0.42087  -0.41055
 Alpha  occ. eigenvalues --   -0.40164  -0.38828  -0.36692  -0.35527  -0.34317
 Alpha  occ. eigenvalues --   -0.32654  -0.31699  -0.31305  -0.25790  -0.23653
 Alpha  occ. eigenvalues --   -0.21782
 Alpha virt. eigenvalues --    0.01955   0.08041   0.10288   0.10701   0.12156
 Alpha virt. eigenvalues --    0.13017   0.13754   0.15105   0.15828   0.16300
 Alpha virt. eigenvalues --    0.16917   0.17457   0.18239   0.19112   0.19905

 Mulliken charges:
               1
     1  C   -0.316665
     2  C    0.017223
     3  C   -0.172680
     4  N   -0.311596
     5  C    0.092338
     6  C   -0.161900
     7  C   -0.389242
     8  C   -0.183226
     9  N   -0.506253
    10  H    0.111884
    11  H    0.102974
    12  H    0.096335
    13  H    0.116582
    14  H    0.075212
    15  H    0.207139
    16  H    0.039025
    17  H    0.117916
    18  H    0.095896
    19  H    0.113537
    20  H    0.109200
    21  H    0.112813
    22  H    0.068597
    23  H    0.112352
    24  H    0.223901
    25  H    0.228640
 Sum of Mulliken charges =  -0.00000

 Dipole moment (field-independent basis, Debye):
    X=             -0.2513    Y=             -1.3050    Z=              0.9959  Tot=              1.6607
 Quadrupole moment (field-independent basis, Debye-Ang):
   XX=            -57.1749   YY=            -55.8016   ZZ=            -56.6565
   XY=              3.7403   XZ=             -0.9189   YZ=             -1.4330

  Exact polarizability: 116.538  -3.823  83.824   4.662   1.023  80.380
 Approx polarizability: 142.999  -6.225 113.854  10.187   0.425 127.401

                      1                      2                      3
                      A                      A                      A
 Frequencies --     57.8741                62.7479                86.9642
 Red. masses --      3.0906                 2.2399                 2.6285
 Frc consts  --      0.0061                 0.0052                 0.0117
 IR Inten    --      0.8824                 0.1943                 0.1146

                      4                      5                      6
                      A                      A                      A
 Frequencies --    114.2795               145.6603               150.6282
 Red. masses --      2.3457                 2.5047                 1.9334
 Frc consts  --      0.0180                 0.0313                 0.0258
 IR Inten    --      0.7114                 0.2997                 2.7224

                      7                      8                      9
                      A                      A                      A
 Frequencies --    205.7000               237.8944               277.3874
 Red. masses --      1.3083                 1.2020                 2.3832
 Frc consts  --      0.0326                 0.0401                 0.1080
 IR Inten    --      1.6075                24.4562                 0.9612

                     10                     11                     12
                      A                      A                      A
 Frequencies --    287.9132               328.3351               386.5511
 Red. masses --      1.9234                 3.0436                 2.6858
 Frc consts  --      0.0939                 0.1933                 0.2364
 IR Inten    --     10.7626                 2.2836                 2.9553

                     13                     14                     15
                      A                      A                      A
 Frequencies --    440.8959               491.7782               536.3683
 Red. masses --      2.3049                 2.4877                 2.3024
 Frc consts  --      0.2640                 0.3545                 0.3903
 IR Inten    --      9.8514                 4.6665                 3.2479

                     16                     17                     18
                      A                      A                      A
 Frequencies --    666.4419               764.6596               790.4525
 Red. masses --      1.6736                 1.3057                 1.4887
 Frc consts  --      0.4379                 0.4498                 0.5480
 IR Inten    --      3.9398                18.3715                25.9176

                     19                     20                     21
                      A                      A                      A
 Frequencies --    815.8748               869.6157               930.2351
 Red. masses --      1.3260                 1.5271                 1.4903
 Frc consts  --      0.5200                 0.6804                 0.7598
 IR Inten    --     89.0912                58.3461                 1.1762

                     22                     23                     24
                      A                      A                      A
 Frequencies --    954.4521               963.8478               977.7131
 Red. masses --      1.3497                 1.9118                 2.2337
 Frc consts  --      0.7244                 1.0464                 1.2581
 IR Inten    --     29.8407                16.1338                 4.9479

                     25                     26                     27
                      A                      A                      A
 Frequencies --    995.0462              1029.8013              1044.0923
 Red. masses --      1.4708                 2.1291                 1.1782
 Frc consts  --      0.8580                 1.3303                 0.7567
 IR Inten    --      1.4066                 2.3864                14.7105

                     28                     29                     30
                      A                      A                      A
 Frequencies --   1070.6109              1084.5410              1113.1711
 Red. masses --      1.6024                 2.2946                 2.4150
 Frc consts  --      1.0821                 1.5902                 1.7632
 IR Inten    --      4.0353                 4.0671                27.7576

                     31                     32                     33
                      A                      A                      A
 Frequencies --   1145.4023              1165.4390              1179.9608
 Red. masses --      1.7693                 2.1684                 2.4657
 Frc consts  --      1.3677                 1.7353                 2.0227
 IR Inten    --      2.4604                 6.0916                23.8793

                     34                     35                     36
                      A                      A                      A
 Frequencies --   1204.2111              1254.6452              1290.4454
 Red. masses --      1.6548                 1.2510                 1.1946
 Frc consts  --      1.4139                 1.1603                 1.1721
 IR Inten    --      1.9596                17.8043                 2.0378

                     37                     38                     39
                      A                      A                      A
 Frequencies --   1313.0707              1319.2855              1335.3462
 Red. masses --      1.2341                 1.1495                 1.2898
 Frc consts  --      1.2536                 1.1788                 1.3551
 IR Inten    --      4.9640                10.2400                 5.3186

                     40                     41                     42
                      A                      A                      A
 Frequencies --   1354.1764              1379.9138              1396.9034
 Red. masses --      1.2767                 1.3286                 1.4471
 Frc consts  --      1.3794                 1.4906                 1.6637
 IR Inten    --     10.6246                15.8638                 4.6040

                     43                     44                     45
                      A                      A                      A
 Frequencies --   1412.7765              1424.8927              1458.3297
 Red. masses --      1.2251                 1.4711                 1.2005
 Frc consts  --      1.4407                 1.7598                 1.5042
 IR Inten    --      4.0730                 2.2049                 3.3895

                     46                     47                     48
                      A                      A                      A
 Frequencies --   1482.6263              1498.4092              1500.3222
 Red. masses --      1.0729                 1.0717                 1.1194
 Frc consts  --      1.3895                 1.4178                 1.4846
 IR Inten    --      5.9732                 7.0875                16.9260

                     49                     50                     51
                      A                      A                      A
 Frequencies --   1504.1461              1508.5334              1512.6568
 Red. masses --      1.0634                 1.0804                 1.1672
 Frc consts  --      1.4175                 1.4486                 1.5735
 IR Inten    --      4.2594                 3.9329                12.9506

                     52                     53                     54
                      A                      A                      A
 Frequencies --   1657.9837              1719.0523              2867.9497
 Red. masses --      1.0906                 4.8843                 1.0798
 Frc consts  --      1.7664                 8.5041                 5.2328
 IR Inten    --     24.9048                 5.7729                70.1588

                     55                     56                     57
                      A                      A                      A
 Frequencies --   2922.4910              2928.0214              3031.4590
 Red. masses --      1.0720                 1.0728                 1.0514
 Frc consts  --      5.3943                 5.4191                 5.6927
 IR Inten    --     59.7213                95.1492                 8.1508

                     58                     59                     60
                      A                      A                      A
 Frequencies --   3035.1736              3035.6374              3060.3409
 Red. masses --      1.0616                 1.0694                 1.0877
 Frc consts  --      5.7620                 5.8064                 6.0023
 IR Inten    --     32.9554                25.2533                29.0819

                     61                     62                     63
                      A                      A                      A
 Frequencies --   3079.8776              3096.9809              3108.0648
 Red. masses --      1.0988                 1.1013                 1.1009
 Frc consts  --      6.1409                 6.2236                 6.2660
 IR Inten    --      1.5797                36.3862                47.2902

                     64                     65                     66
                      A                      A                      A
 Frequencies --   3137.4835              3150.0283              3222.2210
 Red. masses --      1.0600                 1.0907                 1.1141
 Frc consts  --      6.1478                 6.3765                 6.8154
 IR Inten    --     12.7528                 6.6918                17.2244

                     67                     68                     69
                      A                      A                      A
 Frequencies --   3494.2972              3494.8434              3574.7238
 Red. masses --      1.0529                 1.0701                 1.0918
 Frc consts  --      7.5749                 7.7005                 8.2202
 IR Inten    --      0.5009                 0.4608                 0.2491

 - Thermochemistry -
 -------------------
 Temperature   298.150 Kelvin.  Pressure   1.00000 Atm.
 Atom     1 has atomic number  6 and mass  12.00000

 Molecular mass:   128.13135 amu.
 Principal axes and moments of inertia in atomic units:
                           1         2         3
     Eigenvalues --   730.590832374.915312904.45551
           X            1.00000  -0.00237   0.00181
           Y            0.00237   0.99999   0.00441
           Z           -0.00182  -0.00441   0.99999
 This molecule is an asymmetric top.
 Rotational symmetry number  1.
 Warning -- assumption of classical behavior for rotation
           may cause significant error
 Rotational temperatures (Kelvin)      0.11855     0.03647     0.02982
 Rotational constants (GHZ):           2.47025     0.75992     0.62137
 Zero-point vibrational energy     598968.2 (Joules/Mol)
                                  143.15682 (Kcal/Mol)
 Warning -- explicit consideration of  15 degrees of freedom as
           vibrations may cause significant error
 Vibrational temperatures:     83.27    90.28   125.12   164.42   209.57
          (Kelvin)            216.72   295.96   342.28   399.10   414.24
                              472.40   556.16   634.35   707.56   771.71
                              958.86  1100.17  1137.28  1173.86  1251.18
                             1338.40  1373.24  1386.76  1406.71  1431.65
                             1481.65  1502.22  1540.37  1560.41  1601.60
                             1647.98  1676.81  1697.70  1732.59  1805.15
                             1856.66  1889.22  1898.16  1921.27  1948.36
                             1985.39  2009.83  2032.67  2050.10  2098.21
                             2133.17  2155.88  2158.63  2164.13  2170.44
                             2176.38  2385.47  2473.33  4126.34  4204.81
                             4212.77  4361.59  4366.94  4367.61  4403.15
                             4431.26  4455.86  4471.81  4514.14  4532.19
                             4636.06  5027.51  5028.30  5143.23

 Zero-point correction=                           0.228135 (Hartree/Particle)
 Thermal correction to Energy=                    0.239699
 Thermal correction to Enthalpy=                  0.240643
 Thermal correction to Gibbs Free Energy=         0.190505
 Sum of electronic and zero-point Energies=           -385.645177
 Sum of electronic and thermal Energies=              -385.633613
 Sum of electronic and thermal Enthalpies=            -385.632669
 Sum of electronic and thermal Free Energies=         -385.682807

                     E (Thermal)             CV                S
                      KCal/Mol        Cal/Mol-Kelvin    Cal/Mol-Kelvin
 Total                  150.413             41.440            105.525
 Electronic               0.000              0.000              0.000
 Translational            0.889              2.981             40.457
 Rotational               0.889              2.981             30.001
 Vibrational            148.636             35.478             35.067
 Vibration     1          0.596              1.974              4.528
 Vibration     2          0.597              1.972              4.369
 Vibration     3          0.601              1.958              3.727
 Vibration     4          0.607              1.938              3.195
 Vibration     5          0.617              1.907              2.728
 Vibration     6          0.618              1.902              2.664
 Vibration     7          0.640              1.832              2.082
 Vibration     8          0.656              1.783              1.819
 Vibration     9          0.678              1.715              1.550
 Vibration    10          0.685              1.696              1.486
 Vibration    11          0.712              1.619              1.268
 Vibration    12          0.755              1.499              1.013
 Vibration    13          0.801              1.381              0.824
 Vibration    14          0.848              1.268              0.679
 Vibration    15          0.891              1.170              0.573

 Optimization completed.
    -- Stationary point found.
 Normal termination of Gaussian 16 at Mon May 31 22:42:54 2021.
