 Gaussian 16, Revision A.03,
 Gaussian 16:  ES64L-G16RevA.03 25-Dec-2016

 -----------------------------
 # opt freq b3lyp/6-31g(2df,p)
 -----------------------------

 -------------------
 Title Card Required
 -------------------
 Symbolic Z-matrix:
 Charge =  0 Multiplicity = 1

 SCF Done:  E(RB3LYP) =  -470.813385956     A.U. after   14 cycles
 SCF Done:  E(RB3LYP) =  -470.824083391     A.U. after   13 cycles
 SCF Done:  E(RB3LYP) =  -470.827166802     A.U. after   12 cycles
 SCF Done:  E(RB3LYP) =  -470.828836482     A.U. after   12 cycles
 SCF Done:  E(RB3LYP) =  -470.830548330     A.U. after   12 cycles
 SCF Done:  E(RB3LYP) =  -470.831965363     A.U. after   12 cycles
 SCF Done:  E(RB3LYP) =  -470.833739875     A.U. after   12 cycles
 SCF Done:  E(RB3LYP) =  -470.835591690     A.U. after   12 cycles
 SCF Done:  E(RB3LYP) =  -470.837341388     A.U. after   12 cycles
 SCF Done:  E(RB3LYP) =  -470.840806869     A.U. after   14 cycles
 SCF Done:  E(RB3LYP) =  -470.841811075     A.U. after   11 cycles
 SCF Done:  E(RB3LYP) =  -470.842422170     A.U. after   12 cycles
 SCF Done:  E(RB3LYP) =  -470.842594980     A.U. after   12 cycles
 SCF Done:  E(RB3LYP) =  -470.842670048     A.U. after   11 cycles
 SCF Done:  E(RB3LYP) =  -470.842689946     A.U. after   10 cycles
 SCF Done:  E(RB3LYP) =  -470.842693224     A.U. after    8 cycles
 SCF Done:  E(RB3LYP) =  -470.842693637     A.U. after    8 cycles
 SCF Done:  E(RB3LYP) =  -470.842693716     A.U. after    7 cycles
 SCF Done:  E(RB3LYP) =  -470.842693740     A.U. after    7 cycles
 Optimization completed.
    -- Stationary point found.
 Normal termination of Gaussian 16 at Mon May 31 19:55:12 2021.

 ----------------------------------------------------------------------
 #N Geom=AllCheck Guess=TCheck SCRF=Check GenChk RB3LYP/6-31G(2df,p) Fr
 eq
 ----------------------------------------------------------------------

 Structure from the checkpoint file:  "CdCCCpNpdNCdNNN.chk"
 -------------------
 Title Card Required
 -------------------
 Charge =  0 Multiplicity = 1

                         Standard orientation:
 ---------------------------------------------------------------------
 Center     Atomic      Atomic             Coordinates (Angstroms)
 Number     Number       Type             X           Y           Z
 ---------------------------------------------------------------------
      1          6           0       -4.585280    0.072274   -0.100446
      2          6           0       -3.412957   -0.364484   -0.553713
      3          6           0       -2.279536   -0.840905    0.313977
      4          6           0       -1.020096    0.001197    0.192079
      5          7           0       -1.233081    1.356155    0.186574
      6          7           0        0.117230   -0.596549    0.117372
      7          6           0        1.270239    0.131410   -0.099632
      8          7           0        2.414991   -0.338215    0.231466
      9          7           0        3.513105    0.465608   -0.013911
     10          7           0        4.714648   -0.260801   -0.214689
     11          1           0       -5.371700    0.402182   -0.770916
     12          1           0       -4.811475    0.098302    0.962392
     13          1           0       -3.226084   -0.382580   -1.626421
     14          1           0       -1.990865   -1.864772    0.062453
     15          1           0       -2.598692   -0.836367    1.364663
     16          1           0       -2.171073    1.691773    0.331921
     17          1           0       -0.486205    1.982683    0.432391
     18          1           0        1.196420    1.101153   -0.625219
     19          1           0        3.380837    1.080548   -0.816806
     20          1           0        4.495448   -1.141362   -0.683139
     21          1           0        5.060912   -0.511895    0.707409
 ---------------------------------------------------------------------

 SCF Done:  E(RB3LYP) =  -470.842693740     A.U. after    1 cycles

 The electronic state is 1-A.
 Alpha  occ. eigenvalues --  -14.36621 -14.35597 -14.33192 -14.32918 -14.30133
 Alpha  occ. eigenvalues --  -10.26342 -10.22402 -10.20352 -10.19928 -10.19196
 Alpha  occ. eigenvalues --   -1.00437  -0.96202  -0.89250  -0.85031  -0.80473
 Alpha  occ. eigenvalues --   -0.73376  -0.70533  -0.61878  -0.57306  -0.56880
 Alpha  occ. eigenvalues --   -0.54535  -0.51783  -0.49924  -0.48657  -0.47408
 Alpha  occ. eigenvalues --   -0.44664  -0.44521  -0.40987  -0.39774  -0.37485
 Alpha  occ. eigenvalues --   -0.36318  -0.34088  -0.28489  -0.27309  -0.26664
 Alpha  occ. eigenvalues --   -0.25726  -0.24809  -0.19117
 Alpha virt. eigenvalues --   -0.01630   0.00701   0.06771   0.07597   0.10695
 Alpha virt. eigenvalues --    0.10899   0.11733   0.12354   0.13490   0.14767
 Alpha virt. eigenvalues --    0.16612   0.17269   0.17955   0.18617   0.20581

 Mulliken charges:
               1
     1  C   -0.325820
     2  C    0.023330
     3  C   -0.310703
     4  C    0.362082
     5  N   -0.530842
     6  N   -0.294625
     7  C    0.033955
     8  N   -0.165269
     9  N   -0.224276
    10  N   -0.442614
    11  H    0.120358
    12  H    0.110617
    13  H    0.103429
    14  H    0.142776
    15  H    0.118949
    16  H    0.259327
    17  H    0.263039
    18  H    0.052638
    19  H    0.227506
    20  H    0.229020
    21  H    0.247123
 Sum of Mulliken charges =  -0.00000

 Dipole moment (field-independent basis, Debye):
    X=             -3.4364    Y=              2.2509    Z=             -0.3127  Tot=              4.1198
 Quadrupole moment (field-independent basis, Debye-Ang):
   XX=            -59.0848   YY=            -56.9047   ZZ=            -58.2471
   XY=             -4.4172   XZ=             -1.6247   YZ=              1.0288

  Exact polarizability: 183.014 -12.520  73.264  -3.858  -1.984  62.734
 Approx polarizability: 238.249 -26.061 118.642  -4.191  -2.773  97.123

                      1                      2                      3
                      A                      A                      A
 Frequencies --     34.1757                59.5058                76.1350
 Red. masses --      3.7323                 3.1264                 3.6120
 Frc consts  --      0.0026                 0.0065                 0.0123
 IR Inten    --      0.2567                 0.5350                 3.6376

                      4                      5                      6
                      A                      A                      A
 Frequencies --    116.7539               126.9540               155.7700
 Red. masses --      2.9536                 3.0775                 4.1979
 Frc consts  --      0.0237                 0.0292                 0.0600
 IR Inten    --      1.6520                 6.4073                 5.7169

                      7                      8                      9
                      A                      A                      A
 Frequencies --    241.9061               284.0586               295.7413
 Red. masses --      2.3507                 2.4395                 3.3123
 Frc consts  --      0.0810                 0.1160                 0.1707
 IR Inten    --      1.0342                69.8879                 7.7308

                     10                     11                     12
                      A                      A                      A
 Frequencies --    310.7935               330.7953               413.2360
 Red. masses --      1.3321                 1.6496                 2.6746
 Frc consts  --      0.0758                 0.1063                 0.2691
 IR Inten    --     85.7702                97.5646                14.9179

                     13                     14                     15
                      A                      A                      A
 Frequencies --    423.6957               486.2163               508.6199
 Red. masses --      1.9199                 1.2523                 2.2422
 Frc consts  --      0.2031                 0.1744                 0.3417
 IR Inten    --      0.6042                22.0413                33.6819

                     16                     17                     18
                      A                      A                      A
 Frequencies --    564.0236               596.0083               643.4669
 Red. masses --      3.4695                 2.6468                 2.7218
 Frc consts  --      0.6503                 0.5540                 0.6640
 IR Inten    --     36.1078                22.2366                17.8510

                     19                     20                     21
                      A                      A                      A
 Frequencies --    704.4062               769.2796               903.2643
 Red. masses --      2.3982                 2.2296                 2.1339
 Frc consts  --      0.7011                 0.7774                 1.0258
 IR Inten    --     75.2866               123.0540                13.1024

                     22                     23                     24
                      A                      A                      A
 Frequencies --    930.5509               953.6103               959.2168
 Red. masses --      1.8356                 1.9970                 1.4015
 Frc consts  --      0.9365                 1.0700                 0.7598
 IR Inten    --      6.4104                50.5661                22.8266

                     25                     26                     27
                      A                      A                      A
 Frequencies --    966.9024               969.1412              1045.1692
 Red. masses --      1.9487                 1.7180                 1.1101
 Frc consts  --      1.0734                 0.9507                 0.7145
 IR Inten    --     27.7010                 7.0891                11.7253

                     28                     29                     30
                      A                      A                      A
 Frequencies --   1081.5104              1116.2214              1124.8626
 Red. masses --      2.0658                 1.8151                 3.1819
 Frc consts  --      1.4236                 1.3324                 2.3721
 IR Inten    --     42.0230                 5.7949                39.7774

                     31                     32                     33
                      A                      A                      A
 Frequencies --   1188.1618              1231.4761              1249.2480
 Red. masses --      2.2416                 1.7344                 1.5608
 Frc consts  --      1.8645                 1.5497                 1.4351
 IR Inten    --      3.9499                35.0384                 3.9091

                     34                     35                     36
                      A                      A                      A
 Frequencies --   1305.6800              1328.9429              1330.8595
 Red. masses --      1.3895                 1.2062                 1.2435
 Frc consts  --      1.3957                 1.2551                 1.2977
 IR Inten    --     17.3067                 4.8551                 4.8369

                     37                     38                     39
                      A                      A                      A
 Frequencies --   1350.5841              1404.4532              1451.7372
 Red. masses --      3.1398                 1.6270                 1.1507
 Frc consts  --      3.3744                 1.8908                 1.4289
 IR Inten    --     44.6523                52.0635                 0.7842

                     40                     41                     42
                      A                      A                      A
 Frequencies --   1469.5528              1500.3321              1630.7743
 Red. masses --      1.1222                 1.1562                 1.2937
 Frc consts  --      1.4278                 1.5334                 2.0271
 IR Inten    --      8.5450                12.2561                95.8861

                     43                     44                     45
                      A                      A                      A
 Frequencies --   1672.6775              1694.0573              1699.4405
 Red. masses --      4.6424                 1.5488                 2.3968
 Frc consts  --      7.6528                 2.6189                 4.0784
 IR Inten    --    138.4274               210.8533               153.0877

                     46                     47                     48
                      A                      A                      A
 Frequencies --   1716.2388              2929.8168              3025.6218
 Red. masses --      5.1527                 1.0810                 1.0661
 Frc consts  --      8.9421                 5.4673                 5.7501
 IR Inten    --    109.3959                76.4509                12.3317

                     49                     50                     51
                      A                      A                      A
 Frequencies --   3100.2238              3137.3752              3146.4556
 Red. masses --      1.0943                 1.0617                 1.0896
 Frc consts  --      6.1968                 6.1570                 6.3554
 IR Inten    --      3.8442                11.1325                 5.8273

                     52                     53                     54
                      A                      A                      A
 Frequencies --   3224.7362              3420.6326              3431.0244
 Red. masses --      1.1142                 1.0608                 1.0660
 Frc consts  --      6.8263                 7.3130                 7.3936
 IR Inten    --     13.6242                11.3962                13.2413

                     55                     56                     57
                      A                      A                      A
 Frequencies --   3528.9287              3601.2109              3721.1501
 Red. masses --      1.0877                 1.0457                 1.1022
 Frc consts  --      7.9805                 7.9905                 8.9919
 IR Inten    --      1.7714                45.3401                51.4240

 - Thermochemistry -
 -------------------
 Temperature   298.150 Kelvin.  Pressure   1.00000 Atm.
 Atom     1 has atomic number  6 and mass  12.00000

 Molecular mass:   141.10145 amu.
 Principal axes and moments of inertia in atomic units:
                           1         2         3
     Eigenvalues --   278.673724382.024634546.23502
           X            0.99999  -0.00259  -0.00230
           Y            0.00256   0.99992  -0.01266
           Z            0.00234   0.01266   0.99992
 This molecule is an asymmetric top.
 Rotational symmetry number  1.
 Rotational temperatures (Kelvin)      0.31081     0.01977     0.01905
 Rotational constants (GHZ):           6.47618     0.41185     0.39697
 Zero-point vibrational energy     458668.5 (Joules/Mol)
                                  109.62440 (Kcal/Mol)
 Warning -- explicit consideration of  17 degrees of freedom as
           vibrations may cause significant error
 Vibrational temperatures:     49.17    85.62   109.54   167.98   182.66
          (Kelvin)            224.12   348.05   408.70   425.51   447.16
                              475.94   594.55   609.60   699.56   731.79
                              811.50   857.52   925.81  1013.48  1106.82
                             1299.60  1338.86  1372.03  1380.10  1391.16
                             1394.38  1503.77  1556.05  1605.99  1618.43
                             1709.50  1771.82  1797.39  1878.58  1912.05
                             1914.81  1943.19  2020.69  2088.73  2114.36
                             2158.64  2346.32  2406.61  2437.37  2445.12
                             2469.28  4215.35  4353.19  4460.53  4513.98
                             4527.05  4639.68  4921.53  4936.48  5077.34
                             5181.34  5353.91

 Zero-point correction=                           0.174698 (Hartree/Particle)
 Thermal correction to Energy=                    0.186382
 Thermal correction to Enthalpy=                  0.187326
 Thermal correction to Gibbs Free Energy=         0.136374
 Sum of electronic and zero-point Energies=           -470.667996
 Sum of electronic and thermal Energies=              -470.656312
 Sum of electronic and thermal Enthalpies=            -470.655368
 Sum of electronic and thermal Free Energies=         -470.706320

                     E (Thermal)             CV                S
                      KCal/Mol        Cal/Mol-Kelvin    Cal/Mol-Kelvin
 Total                  116.956             41.504            107.237
 Electronic               0.000              0.000              0.000
 Translational            0.889              2.981             40.744
 Rotational               0.889              2.981             30.097
 Vibrational            115.179             35.542             36.396
 Vibration     1          0.594              1.983              5.571
 Vibration     2          0.597              1.974              4.474
 Vibration     3          0.599              1.965              3.988
 Vibration     4          0.608              1.935              3.153
 Vibration     5          0.611              1.926              2.992
 Vibration     6          0.620              1.896              2.601
 Vibration     7          0.658              1.776              1.789
 Vibration     8          0.682              1.703              1.509
 Vibration     9          0.690              1.682              1.441
 Vibration    10          0.700              1.653              1.358
 Vibration    11          0.713              1.614              1.256
 Vibration    12          0.777              1.441              0.915
 Vibration    13          0.786              1.419              0.880
 Vibration    14          0.842              1.281              0.693
 Vibration    15          0.864              1.231              0.637
 Vibration    16          0.920              1.109              0.516
 Vibration    17          0.954              1.040              0.457

                           ! Non-Optimized Parameters !
 Normal termination of Gaussian 16 at Mon May 31 20:22:53 2021.
