 Gaussian 16, Revision A.03,
 Gaussian 16:  ES64L-G16RevA.03 25-Dec-2016

 -----------------------------
 # opt freq b3lyp/6-31g(2df,p)
 -----------------------------

 -------------------
 Title Card Required
 -------------------
 Symbolic Z-matrix:
 Charge =  0 Multiplicity = 1

 SCF Done:  E(RB3LYP) =  -400.661482504     A.U. after   14 cycles
 SCF Done:  E(RB3LYP) =  -400.668654895     A.U. after   12 cycles
 SCF Done:  E(RB3LYP) =  -400.671557103     A.U. after   11 cycles
 SCF Done:  E(RB3LYP) =  -400.675046680     A.U. after   12 cycles
 SCF Done:  E(RB3LYP) =  -400.677281579     A.U. after   12 cycles
 SCF Done:  E(RB3LYP) =  -400.677819194     A.U. after   11 cycles
 SCF Done:  E(RB3LYP) =  -400.677965327     A.U. after   10 cycles
 SCF Done:  E(RB3LYP) =  -400.677993678     A.U. after    9 cycles
 SCF Done:  E(RB3LYP) =  -400.678009658     A.U. after    9 cycles
 SCF Done:  E(RB3LYP) =  -400.678027944     A.U. after   10 cycles
 SCF Done:  E(RB3LYP) =  -400.681411060     A.U. after   10 cycles
 SCF Done:  E(RB3LYP) =  -400.681451216     A.U. after   10 cycles
 SCF Done:  E(RB3LYP) =  -400.681471025     A.U. after    9 cycles
 SCF Done:  E(RB3LYP) =  -400.681479257     A.U. after    8 cycles
 SCF Done:  E(RB3LYP) =  -400.681484044     A.U. after    9 cycles
 SCF Done:  E(RB3LYP) =  -400.681484142     A.U. after    7 cycles
 SCF Done:  E(RB3LYP) =  -400.681484218     A.U. after    7 cycles
 SCF Done:  E(RB3LYP) =  -400.681484308     A.U. after    8 cycles
 SCF Done:  E(RB3LYP) =  -400.681484339     A.U. after    7 cycles
 Optimization completed.
    -- Stationary point found.
 Normal termination of Gaussian 16 at Tue Jun  1 07:27:46 2021.

 ----------------------------------------------------------------------
 #N Geom=AllCheck Guess=TCheck SCRF=Check GenChk RB3LYP/6-31G(2df,p) Fr
 eq
 ----------------------------------------------------------------------

 Structure from the checkpoint file:  "CdCCCNdCpCpNN.chk"
 -------------------
 Title Card Required
 -------------------
 Charge =  0 Multiplicity = 1

                         Standard orientation:
 ---------------------------------------------------------------------
 Center     Atomic      Atomic             Coordinates (Angstroms)
 Number     Number       Type             X           Y           Z
 ---------------------------------------------------------------------
      1          6           0        4.330190    0.096896   -0.633555
      2          6           0        3.377082    0.043367    0.291940
      3          6           0        2.074041   -0.688848    0.161000
      4          6           0        0.854891    0.241276    0.265864
      5          7           0       -0.368536   -0.537519    0.217889
      6          6           0       -1.493617    0.058400    0.134077
      7          6           0       -1.704175    1.552076    0.017443
      8          7           0       -2.640229   -0.728551    0.233442
      9          7           0       -3.824395   -0.451571   -0.485356
     10          1           0        5.252143    0.647470   -0.477789
     11          1           0        4.228435   -0.417139   -1.585670
     12          1           0        3.526086    0.576253    1.232104
     13          1           0        1.981563   -1.443800    0.953080
     14          1           0        2.031743   -1.227417   -0.792005
     15          1           0        0.907720    0.987454   -0.543306
     16          1           0        0.922171    0.810945    1.208454
     17          1           0       -1.148356    2.065731    0.807683
     18          1           0       -2.754930    1.832825    0.094012
     19          1           0       -1.316713    1.924203   -0.937251
     20          1           0       -2.410709   -1.714267    0.212123
     21          1           0       -3.622782   -0.040303   -1.394026
     22          1           0       -4.394731    0.202537    0.040153
 ---------------------------------------------------------------------

 SCF Done:  E(RB3LYP) =  -400.681484339     A.U. after    1 cycles

 The electronic state is 1-A.
 Alpha  occ. eigenvalues --  -14.35598 -14.35221 -14.28883 -10.24499 -10.19902
 Alpha  occ. eigenvalues --  -10.19336 -10.17817 -10.17124 -10.16743  -0.98479
 Alpha  occ. eigenvalues --   -0.90070  -0.79814  -0.77066  -0.73428  -0.70289
 Alpha  occ. eigenvalues --   -0.61895  -0.55960  -0.54511  -0.51053  -0.49787
 Alpha  occ. eigenvalues --   -0.48212  -0.45951  -0.44166  -0.43003  -0.41657
 Alpha  occ. eigenvalues --   -0.40045  -0.38815  -0.36811  -0.34689  -0.33039
 Alpha  occ. eigenvalues --   -0.31666  -0.27147  -0.24846  -0.23617  -0.21842
 Alpha virt. eigenvalues --    0.02118   0.02909   0.06906   0.10434   0.11959
 Alpha virt. eigenvalues --    0.12533   0.12929   0.13537   0.14823   0.15634
 Alpha virt. eigenvalues --    0.17428   0.18431   0.19192   0.19915   0.19979

 Mulliken charges:
               1
     1  C   -0.319614
     2  C    0.029185
     3  C   -0.223694
     4  C   -0.135250
     5  N   -0.291512
     6  C    0.367840
     7  C   -0.481217
     8  N   -0.299115
     9  N   -0.465697
    10  H    0.106439
    11  H    0.100653
    12  H    0.081293
    13  H    0.110124
    14  H    0.099464
    15  H    0.090958
    16  H    0.090555
    17  H    0.148304
    18  H    0.112992
    19  H    0.144093
    20  H    0.245931
    21  H    0.238519
    22  H    0.249750
 Sum of Mulliken charges =  -0.00000

 Dipole moment (field-independent basis, Debye):
    X=             -1.3898    Y=              2.2740    Z=             -0.6104  Tot=              2.7341
 Quadrupole moment (field-independent basis, Debye-Ang):
   XX=            -54.2608   YY=            -55.7798   ZZ=            -54.1918
   XY=             -4.5613   XZ=              1.8430   YZ=              0.4825

  Exact polarizability: 131.472   2.691  72.839  -4.256   1.207  70.040
 Approx polarizability: 161.690   1.916 107.444  -9.701   0.382 111.265

                      1                      2                      3
                      A                      A                      A
 Frequencies --     28.8630                59.0039                79.4683
 Red. masses --      2.7535                 2.7858                 2.9910
 Frc consts  --      0.0014                 0.0057                 0.0111
 IR Inten    --      1.4155                 0.3284                 0.1248

                      4                      5                      6
                      A                      A                      A
 Frequencies --     84.9308               116.6025               129.6787
 Red. masses --      1.0628                 2.8808                 2.7803
 Frc consts  --      0.0045                 0.0231                 0.0275
 IR Inten    --      0.1884                 8.0734                 1.8649

                      7                      8                      9
                      A                      A                      A
 Frequencies --    238.5461               279.8222               297.2983
 Red. masses --      2.4652                 2.3403                 3.4822
 Frc consts  --      0.0827                 0.1080                 0.1813
 IR Inten    --      1.5372                 1.8190                 3.0709

                     10                     11                     12
                      A                      A                      A
 Frequencies --    329.4202               354.5567               439.8064
 Red. masses --      2.0455                 1.6603                 2.1090
 Frc consts  --      0.1308                 0.1230                 0.2403
 IR Inten    --     10.8757                10.2556                 1.9265

                     13                     14                     15
                      A                      A                      A
 Frequencies --    517.1723               530.2698               617.5619
 Red. masses --      2.5484                 2.6543                 2.9835
 Frc consts  --      0.4016                 0.4397                 0.6704
 IR Inten    --     28.3673                10.9987                35.0732

                     16                     17                     18
                      A                      A                      A
 Frequencies --    662.1297               727.9026               786.5501
 Red. masses --      1.6329                 1.7147                 1.2043
 Frc consts  --      0.4218                 0.5353                 0.4390
 IR Inten    --     19.5365               152.0203                 2.1961

                     19                     20                     21
                      A                      A                      A
 Frequencies --    817.7560               900.1194               944.2222
 Red. masses --      2.2887                 1.7335                 1.5220
 Frc consts  --      0.9018                 0.8275                 0.7995
 IR Inten    --     24.7548                69.5627                12.8895

                     22                     23                     24
                      A                      A                      A
 Frequencies --    947.3798               986.3470              1014.3971
 Red. masses --      1.4359                 1.7551                 1.7052
 Frc consts  --      0.7593                 1.0061                 1.0338
 IR Inten    --     20.7930                 5.7279                10.4486

                     25                     26                     27
                      A                      A                      A
 Frequencies --   1043.1397              1047.0398              1058.3314
 Red. masses --      1.3433                 1.4637                 3.0592
 Frc consts  --      0.8612                 0.9454                 2.0188
 IR Inten    --      4.1873                 7.5917                 4.0825

                     28                     29                     30
                      A                      A                      A
 Frequencies --   1083.8564              1150.0589              1214.5737
 Red. masses --      2.6856                 1.6544                 3.0288
 Frc consts  --      1.8588                 1.2892                 2.6325
 IR Inten    --     34.6663                 0.8653                 3.7589

                     31                     32                     33
                      A                      A                      A
 Frequencies --   1228.3752              1283.0657              1314.6119
 Red. masses --      1.4198                 1.3199                 1.2085
 Frc consts  --      1.2622                 1.2803                 1.2305
 IR Inten    --      0.3635                42.7022                 6.8520

                     34                     35                     36
                      A                      A                      A
 Frequencies --   1317.0189              1331.2154              1354.3837
 Red. masses --      1.1324                 1.2527                 2.6339
 Frc consts  --      1.1572                 1.3079                 2.8467
 IR Inten    --      0.4016                 4.7776               151.5939

                     37                     38                     39
                      A                      A                      A
 Frequencies --   1386.7271              1408.7798              1454.8761
 Red. masses --      1.3152                 1.4767                 1.1734
 Frc consts  --      1.4901                 1.7268                 1.4634
 IR Inten    --     17.2160                22.7229                 0.8167

                     40                     41                     42
                      A                      A                      A
 Frequencies --   1456.4926              1473.4073              1482.9558
 Red. masses --      1.2408                 1.1005                 1.0540
 Frc consts  --      1.5508                 1.4076                 1.3657
 IR Inten    --      2.4208                 3.2783                 8.7166

                     43                     44                     45
                      A                      A                      A
 Frequencies --   1489.6810              1491.4431              1684.8264
 Red. masses --      1.1420                 1.0997                 1.0772
 Frc consts  --      1.4931                 1.4413                 1.8016
 IR Inten    --     15.4962                 1.2190                36.1175

                     46                     47                     48
                      A                      A                      A
 Frequencies --   1717.6108              1721.2633              2949.4937
 Red. masses --      5.1154                 6.6500                 1.0578
 Frc consts  --      8.8916                11.6082                 5.4219
 IR Inten    --    101.1269               230.1697                45.5820

                     49                     50                     51
                      A                      A                      A
 Frequencies --   2981.5535              3022.2738              3044.9408
 Red. masses --      1.1001                 1.0624                 1.0387
 Frc consts  --      5.7619                 5.7176                 5.6742
 IR Inten    --     31.4182                25.4567                 6.5492

                     52                     53                     54
                      A                      A                      A
 Frequencies --   3073.3746              3100.9515              3118.8624
 Red. masses --      1.0989                 1.0981                 1.0827
 Frc consts  --      6.1154                 6.2216                 6.2049
 IR Inten    --     19.2126                 6.9725                27.8879

                     55                     56                     57
                      A                      A                      A
 Frequencies --   3139.6400              3142.4941              3219.8770
 Red. masses --      1.0671                 1.0995                 1.1142
 Frc consts  --      6.1973                 6.3974                 6.8061
 IR Inten    --      6.6564                17.8220                19.2323

                     58                     59                     60
                      A                      A                      A
 Frequencies --   3456.8022              3552.7924              3568.0487
 Red. masses --      1.0478                 1.0939                 1.0763
 Frc consts  --      7.3772                 8.1355                 8.0731
 IR Inten    --      7.4972                 3.0052                15.3107

 - Thermochemistry -
 -------------------
 Temperature   298.150 Kelvin.  Pressure   1.00000 Atm.
 Atom     1 has atomic number  6 and mass  12.00000

 Molecular mass:   127.11095 amu.
 Principal axes and moments of inertia in atomic units:
                           1         2         3
     Eigenvalues --   333.338513316.398413484.83560
           X            0.99997  -0.00774   0.00034
           Y            0.00774   0.99983   0.01679
           Z           -0.00047  -0.01678   0.99986
 This molecule is an asymmetric top.
 Rotational symmetry number  1.
 Rotational temperatures (Kelvin)      0.25984     0.02612     0.02485
 Rotational constants (GHZ):           5.41414     0.54419     0.51788
 Zero-point vibrational energy     505150.9 (Joules/Mol)
                                  120.73397 (Kcal/Mol)
 Warning -- explicit consideration of  15 degrees of freedom as
           vibrations may cause significant error
 Vibrational temperatures:     41.53    84.89   114.34   122.20   167.77
          (Kelvin)            186.58   343.21   402.60   427.75   473.96
                              510.13   632.78   744.10   762.94   888.53
                              952.66  1047.29  1131.67  1176.57  1295.07
                             1358.53  1363.07  1419.13  1459.49  1500.85
                             1506.46  1522.70  1559.43  1654.68  1747.50
                             1767.36  1846.05  1891.43  1894.90  1915.32
                             1948.66  1995.19  2026.92  2093.24  2095.57
                             2119.90  2133.64  2143.32  2145.85  2424.09
                             2471.26  2476.51  4243.66  4289.79  4348.38
                             4380.99  4421.90  4461.58  4487.35  4517.24
                             4521.35  4632.68  4973.57  5111.68  5133.63

 Zero-point correction=                           0.192402 (Hartree/Particle)
 Thermal correction to Energy=                    0.203682
 Thermal correction to Enthalpy=                  0.204626
 Thermal correction to Gibbs Free Energy=         0.154136
 Sum of electronic and zero-point Energies=           -400.489083
 Sum of electronic and thermal Energies=              -400.477802
 Sum of electronic and thermal Enthalpies=            -400.476858
 Sum of electronic and thermal Free Energies=         -400.527348

                     E (Thermal)             CV                S
                      KCal/Mol        Cal/Mol-Kelvin    Cal/Mol-Kelvin
 Total                  127.813             39.341            106.266
 Electronic               0.000              0.000              0.000
 Translational            0.889              2.981             40.433
 Rotational               0.889              2.981             29.734
 Vibrational            126.035             33.379             36.099
 Vibration     1          0.593              1.984              5.906
 Vibration     2          0.596              1.974              4.490
 Vibration     3          0.600              1.963              3.904
 Vibration     4          0.601              1.960              3.774
 Vibration     5          0.608              1.936              3.156
 Vibration     6          0.612              1.924              2.951
 Vibration     7          0.657              1.782              1.814
 Vibration     8          0.680              1.711              1.535
 Vibration     9          0.691              1.679              1.432
 Vibration    10          0.712              1.617              1.263
 Vibration    11          0.730              1.566              1.146
 Vibration    12          0.800              1.383              0.827
 Vibration    13          0.872              1.212              0.617
 Vibration    14          0.885              1.183              0.587
 Vibration    15          0.977              0.995              0.420

 Optimization completed.
    -- Stationary point found.
 Normal termination of Gaussian 16 at Tue Jun  1 08:02:11 2021.
