 Gaussian 16, Revision A.03,
 Gaussian 16:  ES64L-G16RevA.03 25-Dec-2016

 -----------------------------
 # opt freq b3lyp/6-31g(2df,p)
 -----------------------------

 -------------------
 Title Card Required
 -------------------
 Symbolic Z-matrix:
 Charge =  0 Multiplicity = 1

 SCF Done:  E(RB3LYP) =  -345.323673000     A.U. after   13 cycles
 SCF Done:  E(RB3LYP) =  -345.327184885     A.U. after   12 cycles
 SCF Done:  E(RB3LYP) =  -345.327749837     A.U. after   12 cycles
 SCF Done:  E(RB3LYP) =  -345.328361103     A.U. after   13 cycles
 SCF Done:  E(RB3LYP) =  -345.328875588     A.U. after   13 cycles
 SCF Done:  E(RB3LYP) =  -345.329513622     A.U. after   11 cycles
 SCF Done:  E(RB3LYP) =  -345.330421240     A.U. after   13 cycles
 SCF Done:  E(RB3LYP) =  -345.330697520     A.U. after   12 cycles
 SCF Done:  E(RB3LYP) =  -345.331293454     A.U. after   13 cycles
 SCF Done:  E(RB3LYP) =  -345.331744689     A.U. after   11 cycles
 SCF Done:  E(RB3LYP) =  -345.333562589     A.U. after   14 cycles
 SCF Done:  E(RB3LYP) =  -345.334215554     A.U. after   11 cycles
 SCF Done:  E(RB3LYP) =  -345.334877657     A.U. after   12 cycles
 SCF Done:  E(RB3LYP) =  -345.334955610     A.U. after   12 cycles
 SCF Done:  E(RB3LYP) =  -345.335000760     A.U. after   10 cycles
 SCF Done:  E(RB3LYP) =  -345.335007475     A.U. after    9 cycles
 SCF Done:  E(RB3LYP) =  -345.335008400     A.U. after    8 cycles
 SCF Done:  E(RB3LYP) =  -345.335008770     A.U. after    7 cycles
 SCF Done:  E(RB3LYP) =  -345.335008868     A.U. after    7 cycles
 Optimization completed.
    -- Stationary point found.
 Normal termination of Gaussian 16 at Tue Jun  1 22:08:27 2021.

 ----------------------------------------------------------------------
 #N Geom=AllCheck Guess=TCheck SCRF=Check GenChk RB3LYP/6-31G(2df,p) Fr
 eq
 ----------------------------------------------------------------------

 Structure from the checkpoint file:  "CdCCCdNCNC.chk"
 -------------------
 Title Card Required
 -------------------
 Charge =  0 Multiplicity = 1

                         Standard orientation:
 ---------------------------------------------------------------------
 Center     Atomic      Atomic             Coordinates (Angstroms)
 Number     Number       Type             X           Y           Z
 ---------------------------------------------------------------------
      1          6           0        3.951230    0.619977    0.413744
      2          6           0        3.079014    0.039655   -0.403159
      3          6           0        1.926110   -0.824589    0.039744
      4          6           0        0.597479   -0.282095   -0.423383
      5          7           0       -0.349040   -0.038958    0.377728
      6          6           0       -1.587593    0.487318   -0.160804
      7          7           0       -2.682028   -0.377388    0.250800
      8          6           0       -3.990773    0.186426   -0.044169
      9          1           0        4.766011    1.229956    0.038384
     10          1           0        3.887687    0.504488    1.491961
     11          1           0        3.176757    0.183456   -1.478892
     12          1           0        1.904836   -0.929648    1.127139
     13          1           0        2.045702   -1.829911   -0.394256
     14          1           0        0.503572   -0.106486   -1.508833
     15          1           0       -1.586432    0.549086   -1.263977
     16          1           0       -1.695652    1.521820    0.222780
     17          1           0       -2.585540   -0.545446    1.247354
     18          1           0       -4.126041    0.254305   -1.130146
     19          1           0       -4.156156    1.197486    0.372154
     20          1           0       -4.770069   -0.474842    0.344797
 ---------------------------------------------------------------------

 SCF Done:  E(RB3LYP) =  -345.335008868     A.U. after    1 cycles

 The electronic state is 1-A.
 Alpha  occ. eigenvalues --  -14.31895 -14.30703 -10.22647 -10.22530 -10.19704
 Alpha  occ. eigenvalues --  -10.19308 -10.19259 -10.17895  -0.93328  -0.87813
 Alpha  occ. eigenvalues --   -0.79633  -0.72200  -0.67830  -0.62333  -0.56603
 Alpha  occ. eigenvalues --   -0.55754  -0.50024  -0.46797  -0.46676  -0.44528
 Alpha  occ. eigenvalues --   -0.42599  -0.41861  -0.40667  -0.38417  -0.37332
 Alpha  occ. eigenvalues --   -0.35134  -0.34917  -0.29468  -0.26626  -0.24742
 Alpha  occ. eigenvalues --   -0.21763
 Alpha virt. eigenvalues --   -0.00500   0.02808   0.09759   0.10584   0.11664
 Alpha virt. eigenvalues --    0.13195   0.14391   0.14992   0.16061   0.16560
 Alpha virt. eigenvalues --    0.17350   0.17903   0.18698   0.19740   0.21915

 Mulliken charges:
               1
     1  C   -0.309883
     2  C    0.026317
     3  C   -0.292166
     4  C    0.045416
     5  N   -0.161983
     6  C   -0.079316
     7  N   -0.274294
     8  C   -0.308481
     9  H    0.113933
    10  H    0.110349
    11  H    0.089705
    12  H    0.120721
    13  H    0.120248
    14  H    0.078805
    15  H    0.084595
    16  H    0.082713
    17  H    0.221798
    18  H    0.120322
    19  H    0.091969
    20  H    0.119232
 Sum of Mulliken charges =  -0.00000

 Dipole moment (field-independent basis, Debye):
    X=              0.3270    Y=              0.4782    Z=             -0.6820  Tot=              0.8949
 Quadrupole moment (field-independent basis, Debye-Ang):
   XX=            -46.1709   YY=            -51.2923   ZZ=            -47.6380
   XY=             -1.6015   XZ=             -1.8339   YZ=             -0.5412

  Exact polarizability: 116.116   3.304  62.547   1.183   1.243  72.375
 Approx polarizability: 132.268   5.246  94.411   0.061   5.605 115.589

                      1                      2                      3
                      A                      A                      A
 Frequencies --     36.3164                68.3025                85.2742
 Red. masses --      3.2020                 2.7355                 2.4637
 Frc consts  --      0.0025                 0.0075                 0.0106
 IR Inten    --      0.4980                 0.1541                 2.9849

                      4                      5                      6
                      A                      A                      A
 Frequencies --     91.5115               138.7009               239.4307
 Red. masses --      3.6329                 2.1979                 1.1692
 Frc consts  --      0.0179                 0.0249                 0.0395
 IR Inten    --      2.5303                 2.5207                 0.9028

                      7                      8                      9
                      A                      A                      A
 Frequencies --    280.6754               309.0599               339.3182
 Red. masses --      2.6087                 2.1591                 3.0208
 Frc consts  --      0.1211                 0.1215                 0.2049
 IR Inten    --      0.5903                 5.0242                 2.5591

                     10                     11                     12
                      A                      A                      A
 Frequencies --    398.7195               474.8633               574.1337
 Red. masses --      2.3052                 2.5793                 3.5469
 Frc consts  --      0.2159                 0.3427                 0.6889
 IR Inten    --      3.6062                 2.3616                 7.2298

                     13                     14                     15
                      A                      A                      A
 Frequencies --    652.9977               796.6715               851.1768
 Red. masses --      1.5717                 1.2917                 1.4693
 Frc consts  --      0.3949                 0.4830                 0.6272
 IR Inten    --      9.8201                99.7175                 2.7796

                     16                     17                     18
                      A                      A                      A
 Frequencies --    930.8095               952.6174               984.8479
 Red. masses --      1.6674                 1.3483                 1.9131
 Frc consts  --      0.8512                 0.7209                 1.0933
 IR Inten    --      0.1339                32.8166                12.8367

                     19                     20                     21
                      A                      A                      A
 Frequencies --   1001.5572              1030.0705              1041.3887
 Red. masses --      1.7472                 2.0503                 1.1446
 Frc consts  --      1.0326                 1.2817                 0.7314
 IR Inten    --     13.3186                16.7705                13.8703

                     22                     23                     24
                      A                      A                      A
 Frequencies --   1067.1984              1073.7516              1143.7010
 Red. masses --      1.8721                 2.0835                 2.5611
 Frc consts  --      1.2562                 1.4153                 1.9738
 IR Inten    --      7.6811                 0.7973                29.5207

                     25                     26                     27
                      A                      A                      A
 Frequencies --   1157.0872              1174.9901              1220.7951
 Red. masses --      1.9259                 1.9605                 1.5426
 Frc consts  --      1.5192                 1.5947                 1.3545
 IR Inten    --      8.9651                34.1183                 4.1933

                     28                     29                     30
                      A                      A                      A
 Frequencies --   1233.4199              1267.9312              1293.0663
 Red. masses --      1.3891                 1.3098                 1.3592
 Frc consts  --      1.2451                 1.2406                 1.3390
 IR Inten    --      4.3385                 6.9260                 7.9071

                     31                     32                     33
                      A                      A                      A
 Frequencies --   1331.6908              1380.4291              1410.1978
 Red. masses --      1.2442                 1.2206                 1.3641
 Frc consts  --      1.3000                 1.3704                 1.5983
 IR Inten    --      1.2925                41.1828                19.5006

                     34                     35                     36
                      A                      A                      A
 Frequencies --   1451.5846              1458.1973              1466.0804
 Red. masses --      1.1419                 1.1703                 1.1295
 Frc consts  --      1.4176                 1.4662                 1.4304
 IR Inten    --      1.7043                 4.3242                 6.3968

                     37                     38                     39
                      A                      A                      A
 Frequencies --   1478.5018              1491.0086              1512.7239
 Red. masses --      1.2086                 1.0880                 1.0589
 Frc consts  --      1.5566                 1.4251                 1.4277
 IR Inten    --     49.2322                 8.6950                 6.1082

                     40                     41                     42
                      A                      A                      A
 Frequencies --   1522.8167              1717.1209              1766.9405
 Red. masses --      1.0839                 4.8366                 8.7926
 Frc consts  --      1.4809                 8.4021                16.1739
 IR Inten    --      8.4542                16.9856               103.2214

                     43                     44                     45
                      A                      A                      A
 Frequencies --   2893.9638              2933.4634              2945.0574
 Red. masses --      1.0649                 1.0622                 1.0908
 Frc consts  --      5.2546                 5.3855                 5.5744
 IR Inten    --     65.5971               109.2975                44.9976

                     46                     47                     48
                      A                      A                      A
 Frequencies --   2967.2486              2990.0838              3050.7499
 Red. masses --      1.0832                 1.0691                 1.0741
 Frc consts  --      5.6191                 5.6316                 5.8900
 IR Inten    --     66.0661                17.3178                40.6124

                     49                     50                     51
                      A                      A                      A
 Frequencies --   3103.3949              3104.4834              3132.1577
 Red. masses --      1.0906                 1.0994                 1.0787
 Frc consts  --      6.1887                 6.2427                 6.2352
 IR Inten    --      4.1011                29.9124                21.8140

                     52                     53                     54
                      A                      A                      A
 Frequencies --   3146.1923              3226.4902              3520.6267
 Red. masses --      1.0715                 1.1147                 1.0734
 Frc consts  --      6.2493                 6.8368                 7.8389
 IR Inten    --      4.8219                14.4710                 0.6381

 - Thermochemistry -
 -------------------
 Temperature   298.150 Kelvin.  Pressure   1.00000 Atm.
 Atom     1 has atomic number  6 and mass  12.00000

 Molecular mass:   112.10005 amu.
 Principal axes and moments of inertia in atomic units:
                           1         2         3
     Eigenvalues --   185.958742935.503302962.42933
           X            0.99999  -0.00364   0.00259
           Y            0.00387   0.99574  -0.09214
           Z           -0.00225   0.09215   0.99574
 This molecule is an asymmetric top.
 Rotational symmetry number  1.
 Rotational temperatures (Kelvin)      0.46577     0.02951     0.02924
 Rotational constants (GHZ):           9.70506     0.61480     0.60921
 Zero-point vibrational energy     460033.5 (Joules/Mol)
                                  109.95064 (Kcal/Mol)
 Warning -- explicit consideration of  12 degrees of freedom as
           vibrations may cause significant error
 Vibrational temperatures:     52.25    98.27   122.69   131.66   199.56
          (Kelvin)            344.49   403.83   444.67   488.20   573.67
                              683.22   826.05   939.52  1146.23  1224.65
                             1339.23  1370.60  1416.98  1441.02  1482.04
                             1498.33  1535.46  1544.89  1645.53  1664.79
                             1690.55  1756.45  1774.62  1824.27  1860.43
                             1916.01  1986.13  2028.96  2088.51  2098.02
                             2109.36  2127.23  2145.23  2176.47  2190.99
                             2470.55  2542.23  4163.77  4220.60  4237.28
                             4269.21  4302.06  4389.35  4465.09  4466.66
                             4506.48  4526.67  4642.20  5065.40

 Zero-point correction=                           0.175217 (Hartree/Particle)
 Thermal correction to Energy=                    0.185091
 Thermal correction to Enthalpy=                  0.186035
 Thermal correction to Gibbs Free Energy=         0.139082
 Sum of electronic and zero-point Energies=           -345.159791
 Sum of electronic and thermal Energies=              -345.149918
 Sum of electronic and thermal Enthalpies=            -345.148974
 Sum of electronic and thermal Free Energies=         -345.195927

                     E (Thermal)             CV                S
                      KCal/Mol        Cal/Mol-Kelvin    Cal/Mol-Kelvin
 Total                  116.146             33.817             98.821
 Electronic               0.000              0.000              0.000
 Translational            0.889              2.981             40.058
 Rotational               0.889              2.981             28.871
 Vibrational            114.369             27.855             29.891
 Vibration     1          0.594              1.982              5.451
 Vibration     2          0.598              1.969              4.202
 Vibration     3          0.601              1.959              3.766
 Vibration     4          0.602              1.955              3.627
 Vibration     5          0.614              1.915              2.822
 Vibration     6          0.657              1.780              1.807
 Vibration     7          0.680              1.709              1.530
 Vibration     8          0.698              1.656              1.367
 Vibration     9          0.719              1.597              1.215
 Vibration    10          0.765              1.473              0.967
 Vibration    11          0.832              1.306              0.724
 Vibration    12          0.930              1.087              0.496

 Optimization completed.
    -- Stationary point found.
 Normal termination of Gaussian 16 at Tue Jun  1 22:28:04 2021.
