 Gaussian 16, Revision A.03,
 Gaussian 16:  ES64L-G16RevA.03 25-Dec-2016

 -----------------------------
 # opt freq b3lyp/6-31g(2df,p)
 -----------------------------

 -------------------
 Title Card Required
 -------------------
 Symbolic Z-matrix:
 Charge =  0 Multiplicity = 1

 SCF Done:  E(RB3LYP) =  -499.867267124     A.U. after   13 cycles
 SCF Done:  E(RB3LYP) =  -499.875640584     A.U. after   12 cycles
 SCF Done:  E(RB3LYP) =  -499.877267871     A.U. after   11 cycles
 SCF Done:  E(RB3LYP) =  -499.878648900     A.U. after   11 cycles
 SCF Done:  E(RB3LYP) =  -499.879899246     A.U. after   11 cycles
 SCF Done:  E(RB3LYP) =  -499.880347202     A.U. after   11 cycles
 SCF Done:  E(RB3LYP) =  -499.880680532     A.U. after   11 cycles
 SCF Done:  E(RB3LYP) =  -499.880826972     A.U. after   11 cycles
 SCF Done:  E(RB3LYP) =  -499.881076650     A.U. after   11 cycles
 SCF Done:  E(RB3LYP) =  -499.882127854     A.U. after   12 cycles
 SCF Done:  E(RB3LYP) =  -499.888103556     A.U. after   13 cycles
 SCF Done:  E(RB3LYP) =  -499.888495772     A.U. after   11 cycles
 SCF Done:  E(RB3LYP) =  -499.888979846     A.U. after   11 cycles
 SCF Done:  E(RB3LYP) =  -499.889007818     A.U. after    9 cycles
 SCF Done:  E(RB3LYP) =  -499.889011298     A.U. after    9 cycles
 SCF Done:  E(RB3LYP) =  -499.889013667     A.U. after    9 cycles
 SCF Done:  E(RB3LYP) =  -499.889014718     A.U. after    8 cycles
 SCF Done:  E(RB3LYP) =  -499.889015048     A.U. after    8 cycles
 SCF Done:  E(RB3LYP) =  -499.889015192     A.U. after    7 cycles
 Optimization completed.
    -- Stationary point found.
 Normal termination of Gaussian 16 at Mon May 31 22:45:21 2021.

 ----------------------------------------------------------------------
 #N Geom=AllCheck Guess=TCheck SCRF=Check GenChk RB3LYP/6-31G(2df,p) Fr
 eq
 ----------------------------------------------------------------------

 Structure from the checkpoint file:  "CdCCCCpdNpNCNF.chk"
 -------------------
 Title Card Required
 -------------------
 Charge =  0 Multiplicity = 1

                         Standard orientation:
 ---------------------------------------------------------------------
 Center     Atomic      Atomic             Coordinates (Angstroms)
 Number     Number       Type             X           Y           Z
 ---------------------------------------------------------------------
      1          6           0        4.615564    0.320679    0.834714
      2          6           0        3.766329   -0.160752   -0.066798
      3          6           0        2.403115    0.400763   -0.358553
      4          6           0        1.288383   -0.620123   -0.090587
      5          6           0       -0.121565   -0.129115   -0.385141
      6          7           0       -0.467570    0.982418   -0.916899
      7          7           0       -1.097738   -1.046365   -0.049073
      8          6           0       -2.492913   -0.733204   -0.217281
      9          7           0       -2.893634    0.304503    0.751753
     10          9           0       -4.249333    0.591783    0.405504
     11          1           0        5.588479   -0.129031    1.001460
     12          1           0        4.373618    1.190029    1.439961
     13          1           0        4.050210   -1.035061   -0.652644
     14          1           0        2.357011    0.705029   -1.413711
     15          1           0        2.235526    1.301448    0.242289
     16          1           0        1.334197   -0.935463    0.960342
     17          1           0        1.462428   -1.529308   -0.680559
     18          1           0        0.341333    1.536038   -1.183648
     19          1           0       -0.866102   -1.713917    0.668636
     20          1           0       -3.091765   -1.624768   -0.018289
     21          1           0       -2.663849   -0.398554   -1.246143
     22          1           0       -2.417975    1.154138    0.434180
 ---------------------------------------------------------------------

 SCF Done:  E(RB3LYP) =  -499.889015192     A.U. after    1 cycles

 The electronic state is 1-A.
 Alpha  occ. eigenvalues --  -24.66907 -14.38101 -14.35435 -14.29792 -10.26229
 Alpha  occ. eigenvalues --  -10.24158 -10.20849 -10.20326 -10.19771 -10.18513
 Alpha  occ. eigenvalues --   -1.17494  -0.97026  -0.87735  -0.82816  -0.81358
 Alpha  occ. eigenvalues --   -0.74962  -0.68565  -0.63955  -0.59054  -0.56476
 Alpha  occ. eigenvalues --   -0.52979  -0.49277  -0.48559  -0.48172  -0.47133
 Alpha  occ. eigenvalues --   -0.45351  -0.44896  -0.41919  -0.40596  -0.39173
 Alpha  occ. eigenvalues --   -0.38011  -0.37265  -0.35080  -0.34945  -0.33502
 Alpha  occ. eigenvalues --   -0.27368  -0.26353  -0.24609  -0.24282
 Alpha virt. eigenvalues --    0.00952   0.02000   0.06119   0.08080   0.09351
 Alpha virt. eigenvalues --    0.10959   0.11576   0.12907   0.13708   0.15239
 Alpha virt. eigenvalues --    0.15769   0.16693   0.17134   0.18049   0.20322

 Mulliken charges:
               1
     1  C   -0.316627
     2  C    0.022691
     3  C   -0.252247
     4  C   -0.277423
     5  C    0.360941
     6  N   -0.533491
     7  N   -0.310427
     8  C   -0.094508
     9  N   -0.179811
    10  F   -0.204402
    11  H    0.116121
    12  H    0.107261
    13  H    0.090599
    14  H    0.117808
    15  H    0.115096
    16  H    0.122663
    17  H    0.128709
    18  H    0.220659
    19  H    0.247756
    20  H    0.119529
    21  H    0.132609
    22  H    0.266492
 Sum of Mulliken charges =  -0.00000

 Dipole moment (field-independent basis, Debye):
    X=              3.6311    Y=             -1.9265    Z=             -0.0724  Tot=              4.1112
 Quadrupole moment (field-independent basis, Debye-Ang):
   XX=            -69.5051   YY=            -56.2268   ZZ=            -61.7143
   XY=              3.6631   XZ=              2.2210   YZ=             -0.0690

  Exact polarizability: 120.243   2.213  79.259   8.087   0.081  69.552
 Approx polarizability: 141.243   1.884 129.353  13.304  -2.960 111.166

                      1                      2                      3
                      A                      A                      A
 Frequencies --     31.5610                51.6602                77.7168
 Red. masses --      3.9452                 2.6298                 4.7906
 Frc consts  --      0.0023                 0.0041                 0.0170
 IR Inten    --      0.2125                 0.3064                 2.5993

                      4                      5                      6
                      A                      A                      A
 Frequencies --     95.6797               109.6300               139.2170
 Red. masses --      3.5491                 3.0854                 3.8974
 Frc consts  --      0.0191                 0.0218                 0.0445
 IR Inten    --      2.8857                 2.9263                 2.4071

                      7                      8                      9
                      A                      A                      A
 Frequencies --    165.5509               277.6402               295.1053
 Red. masses --      2.4363                 2.2624                 4.8796
 Frc consts  --      0.0393                 0.1028                 0.2504
 IR Inten    --      1.7403                 6.7449                 4.8093

                     10                     11                     12
                      A                      A                      A
 Frequencies --    324.4113               352.7840               439.4479
 Red. masses --      3.9008                 3.1095                 1.7516
 Frc consts  --      0.2419                 0.2280                 0.1993
 IR Inten    --      3.7623                10.1314                28.4764

                     13                     14                     15
                      A                      A                      A
 Frequencies --    441.8435               525.2470               577.1646
 Red. masses --      1.7463                 3.5122                 2.6861
 Frc consts  --      0.2009                 0.5709                 0.5272
 IR Inten    --     70.4771                12.3024                 3.4312

                     16                     17                     18
                      A                      A                      A
 Frequencies --    635.3000               700.0941               790.4918
 Red. masses --      1.7330                 2.2809                 1.4147
 Frc consts  --      0.4121                 0.6587                 0.5208
 IR Inten    --      4.9256                16.2135                 0.7913

                     19                     20                     21
                      A                      A                      A
 Frequencies --    829.8872               883.4117               936.4970
 Red. masses --      1.1463                 2.5215                 4.0247
 Frc consts  --      0.4651                 1.1594                 2.0797
 IR Inten    --     49.2193                10.2591                76.9781

                     22                     23                     24
                      A                      A                      A
 Frequencies --    946.4386               955.2470               998.2474
 Red. masses --      1.7820                 1.3644                 2.0436
 Frc consts  --      0.9405                 0.7335                 1.1999
 IR Inten    --      8.0771                31.4104                18.7605

                     25                     26                     27
                      A                      A                      A
 Frequencies --   1009.5911              1025.9255              1043.4450
 Red. masses --      1.7671                 3.1525                 1.1499
 Frc consts  --      1.0612                 1.9550                 0.7377
 IR Inten    --      7.7962                24.7316                 9.1283

                     28                     29                     30
                      A                      A                      A
 Frequencies --   1061.5295              1094.4485              1131.2073
 Red. masses --      3.5846                 2.1804                 1.6257
 Frc consts  --      2.3799                 1.5388                 1.2257
 IR Inten    --      7.9803                30.0151                 2.5132

                     31                     32                     33
                      A                      A                      A
 Frequencies --   1177.7613              1216.9642              1230.1191
 Red. masses --      2.1064                 1.4294                 1.4830
 Frc consts  --      1.7215                 1.2473                 1.3222
 IR Inten    --     64.6626                10.4864                 3.2099

                     34                     35                     36
                      A                      A                      A
 Frequencies --   1269.0101              1311.8502              1321.3622
 Red. masses --      1.3063                 1.1617                 1.2113
 Frc consts  --      1.2394                 1.1779                 1.2460
 IR Inten    --     37.1580                 9.3005                10.8402

                     37                     38                     39
                      A                      A                      A
 Frequencies --   1330.1657              1336.1488              1386.6875
 Red. masses --      1.2500                 1.4329                 1.3052
 Frc consts  --      1.3030                 1.5072                 1.4787
 IR Inten    --      5.9798                36.0935                 8.9841

                     40                     41                     42
                      A                      A                      A
 Frequencies --   1404.0767              1456.7988              1467.4132
 Red. masses --      1.5749                 1.1720                 1.1301
 Frc consts  --      1.8293                 1.4654                 1.4338
 IR Inten    --     28.8432                 1.6072                39.1620

                     43                     44                     45
                      A                      A                      A
 Frequencies --   1468.6544              1493.1095              1494.5167
 Red. masses --      1.0875                 1.1067                 1.1019
 Frc consts  --      1.3820                 1.4537                 1.4501
 IR Inten    --      7.5396                 3.8446                 4.1716

                     46                     47                     48
                      A                      A                      A
 Frequencies --   1536.7870              1702.4201              1719.7714
 Red. masses --      1.8137                 7.0656                 4.8467
 Frc consts  --      2.5238                12.0651                 8.4458
 IR Inten    --    210.0500               120.7377                10.4267

                     49                     50                     51
                      A                      A                      A
 Frequencies --   3007.3335              3021.4294              3048.7853
 Red. masses --      1.0638                 1.0602                 1.0595
 Frc consts  --      5.6686                 5.7025                 5.8026
 IR Inten    --      9.1505                25.6721                31.0167

                     52                     53                     54
                      A                      A                      A
 Frequencies --   3049.7484              3073.9280              3112.1696
 Red. masses --      1.0971                 1.0987                 1.1059
 Frc consts  --      6.0119                 6.1167                 6.3111
 IR Inten    --      3.2412                19.3012                20.0380

                     55                     56                     57
                      A                      A                      A
 Frequencies --   3129.0355              3144.0776              3225.6777
 Red. masses --      1.0805                 1.0700                 1.1143
 Frc consts  --      6.2327                 6.2320                 6.8310
 IR Inten    --     21.2715                 3.6505                14.4283

                     58                     59                     60
                      A                      A                      A
 Frequencies --   3424.8385              3532.8128              3639.6255
 Red. masses --      1.0751                 1.0747                 1.0766
 Frc consts  --      7.4297                 7.9025                 8.4023
 IR Inten    --     12.9567                 1.5784                23.2043

 - Thermochemistry -
 -------------------
 Temperature   298.150 Kelvin.  Pressure   1.00000 Atm.
 Atom     1 has atomic number  6 and mass  12.00000

 Molecular mass:   145.10153 amu.
 Principal axes and moments of inertia in atomic units:
                           1         2         3
     Eigenvalues --   409.538684354.767664437.41124
           X            0.99993   0.00819   0.00843
           Y           -0.00806   0.99984  -0.01571
           Z           -0.00856   0.01564   0.99984
 This molecule is an asymmetric top.
 Rotational symmetry number  1.
 Rotational temperatures (Kelvin)      0.21149     0.01989     0.01952
 Rotational constants (GHZ):           4.40677     0.41443     0.40671
 Zero-point vibrational energy     488551.9 (Joules/Mol)
                                  116.76671 (Kcal/Mol)
 Warning -- explicit consideration of  15 degrees of freedom as
           vibrations may cause significant error
 Vibrational temperatures:     45.41    74.33   111.82   137.66   157.73
          (Kelvin)            200.30   238.19   399.46   424.59   466.76
                              507.58   632.27   635.71   755.71   830.41
                              914.06  1007.28  1137.34  1194.02  1271.03
                             1347.41  1361.71  1374.39  1436.26  1452.58
                             1476.08  1501.28  1527.30  1574.67  1627.56
                             1694.54  1750.94  1769.87  1825.82  1887.46
                             1901.15  1913.81  1922.42  1995.13  2020.15
                             2096.01  2111.28  2113.07  2148.25  2150.28
                             2211.09  2449.40  2474.37  4326.88  4347.16
                             4386.52  4387.91  4422.70  4477.72  4501.98
                             4523.63  4641.03  4927.58  5082.93  5236.61

 Zero-point correction=                           0.186080 (Hartree/Particle)
 Thermal correction to Energy=                    0.197646
 Thermal correction to Enthalpy=                  0.198590
 Thermal correction to Gibbs Free Energy=         0.147038
 Sum of electronic and zero-point Energies=           -499.702936
 Sum of electronic and thermal Energies=              -499.691369
 Sum of electronic and thermal Enthalpies=            -499.690425
 Sum of electronic and thermal Free Energies=         -499.741977

                     E (Thermal)             CV                S
                      KCal/Mol        Cal/Mol-Kelvin    Cal/Mol-Kelvin
 Total                  124.025             40.461            108.500
 Electronic               0.000              0.000              0.000
 Translational            0.889              2.981             40.828
 Rotational               0.889              2.981             30.449
 Vibrational            122.247             34.500             37.223
 Vibration     1          0.594              1.983              5.729
 Vibration     2          0.596              1.977              4.753
 Vibration     3          0.599              1.964              3.948
 Vibration     4          0.603              1.952              3.540
 Vibration     5          0.606              1.941              3.275
 Vibration     6          0.615              1.914              2.815
 Vibration     7          0.624              1.885              2.485
 Vibration     8          0.679              1.715              1.548
 Vibration     9          0.689              1.683              1.445
 Vibration    10          0.709              1.627              1.288
 Vibration    11          0.729              1.570              1.154
 Vibration    12          0.799              1.384              0.828
 Vibration    13          0.802              1.379              0.821
 Vibration    14          0.880              1.194              0.598
 Vibration    15          0.934              1.081              0.491

                           ! Non-Optimized Parameters !
 Normal termination of Gaussian 16 at Mon May 31 23:17:44 2021.
