 Gaussian 16, Revision A.03,
 Gaussian 16:  ES64L-G16RevA.03 25-Dec-2016

 -----------------------------
 # opt freq b3lyp/6-31g(2df,p)
 -----------------------------

 -------------------
 Title Card Required
 -------------------
 Symbolic Z-matrix:
 Charge =  0 Multiplicity = 1

 SCF Done:  E(RB3LYP) =  -385.836394841     A.U. after   13 cycles
 SCF Done:  E(RB3LYP) =  -385.845185329     A.U. after   12 cycles
 SCF Done:  E(RB3LYP) =  -385.851617531     A.U. after   11 cycles
 SCF Done:  E(RB3LYP) =  -385.857542788     A.U. after   12 cycles
 SCF Done:  E(RB3LYP) =  -385.861600394     A.U. after   11 cycles
 SCF Done:  E(RB3LYP) =  -385.862979031     A.U. after   11 cycles
 SCF Done:  E(RB3LYP) =  -385.863153771     A.U. after   10 cycles
 SCF Done:  E(RB3LYP) =  -385.863179740     A.U. after    9 cycles
 SCF Done:  E(RB3LYP) =  -385.863189273     A.U. after    9 cycles
 SCF Done:  E(RB3LYP) =  -385.863198291     A.U. after    9 cycles
 SCF Done:  E(RB3LYP) =  -385.863851820     A.U. after   10 cycles
 SCF Done:  E(RB3LYP) =  -385.864011154     A.U. after    9 cycles
 SCF Done:  E(RB3LYP) =  -385.864087860     A.U. after    9 cycles
 SCF Done:  E(RB3LYP) =  -385.864142847     A.U. after    9 cycles
 SCF Done:  E(RB3LYP) =  -385.864150639     A.U. after    8 cycles
 SCF Done:  E(RB3LYP) =  -385.864152771     A.U. after    8 cycles
 SCF Done:  E(RB3LYP) =  -385.864153097     A.U. after    7 cycles
 SCF Done:  E(RB3LYP) =  -385.864153172     A.U. after    7 cycles
 SCF Done:  E(RB3LYP) =  -385.864153185     A.U. after    6 cycles
 Optimization completed.
    -- Stationary point found.
 Normal termination of Gaussian 16 at Mon May 31 15:55:36 2021.

 ----------------------------------------------------------------------
 #N Geom=AllCheck Guess=TCheck SCRF=Check GenChk RB3LYP/6-31G(2df,p) Fr
 eq
 ----------------------------------------------------------------------

 Structure from the checkpoint file:  "CdCNpNpCpCCpCC.chk"
 -------------------
 Title Card Required
 -------------------
 Charge =  0 Multiplicity = 1

                         Standard orientation:
 ---------------------------------------------------------------------
 Center     Atomic      Atomic             Coordinates (Angstroms)
 Number     Number       Type             X           Y           Z
 ---------------------------------------------------------------------
      1          6           0       -3.110510   -0.576075   -0.462895
      2          6           0       -1.833737   -0.310860   -0.772364
      3          7           0       -0.858337    0.208928    0.058039
      4          7           0       -1.139797    0.297464    1.438585
      5          6           0        0.560383   -0.033100   -0.247695
      6          6           0        1.416097    1.148998    0.228440
      7          6           0        1.075406    2.469687   -0.466299
      8          6           0        1.035583   -1.392688    0.306771
      9          6           0        2.400613   -1.853334   -0.214923
     10          1           0       -3.783348   -0.937421   -1.228715
     11          1           0       -3.524455   -0.418056    0.524790
     12          1           0       -1.477919   -0.472655   -1.786869
     13          1           0       -1.599750   -0.564036    1.742827
     14          1           0       -1.815253    1.046021    1.574338
     15          1           0        0.612342   -0.075707   -1.344077
     16          1           0        2.470759    0.908803    0.057393
     17          1           0        1.284277    1.247910    1.311085
     18          1           0        1.251083    2.408415   -1.546638
     19          1           0        1.688190    3.288624   -0.077181
     20          1           0        0.024093    2.731404   -0.317598
     21          1           0        0.280666   -2.143253    0.039750
     22          1           0        1.050567   -1.341055    1.401754
     23          1           0        2.417347   -1.885748   -1.310564
     24          1           0        2.633911   -2.859332    0.147547
     25          1           0        3.211404   -1.194431    0.109577
 ---------------------------------------------------------------------

 SCF Done:  E(RB3LYP) =  -385.864153185     A.U. after    1 cycles

 The electronic state is 1-A.
 Alpha  occ. eigenvalues --  -14.35841 -14.34450 -10.21212 -10.20521 -10.17602
 Alpha  occ. eigenvalues --  -10.17411 -10.17118 -10.16617 -10.15139  -0.98606
 Alpha  occ. eigenvalues --   -0.82250  -0.78465  -0.74607  -0.72033  -0.65769
 Alpha  occ. eigenvalues --   -0.60849  -0.57398  -0.56669  -0.50040  -0.49600
 Alpha  occ. eigenvalues --   -0.46892  -0.44515  -0.43308  -0.42932  -0.40402
 Alpha  occ. eigenvalues --   -0.38494  -0.37208  -0.36451  -0.36282  -0.34684
 Alpha  occ. eigenvalues --   -0.33564  -0.32697  -0.31880  -0.29805  -0.26450
 Alpha  occ. eigenvalues --   -0.19271
 Alpha virt. eigenvalues --    0.04689   0.07445   0.09545   0.10988   0.12015
 Alpha virt. eigenvalues --    0.13594   0.14694   0.15337   0.16050   0.16781
 Alpha virt. eigenvalues --    0.16924   0.17464   0.18275   0.18740   0.19662

 Mulliken charges:
               1
     1  C   -0.426173
     2  C    0.093250
     3  N   -0.052081
     4  N   -0.467891
     5  C    0.057950
     6  C   -0.179763
     7  C   -0.384002
     8  C   -0.188741
     9  C   -0.386679
    10  H    0.102520
    11  H    0.077650
    12  H    0.097889
    13  H    0.233100
    14  H    0.249334
    15  H    0.075011
    16  H    0.093815
    17  H    0.114817
    18  H    0.107304
    19  H    0.108482
    20  H    0.121690
    21  H    0.096714
    22  H    0.108105
    23  H    0.112190
    24  H    0.113916
    25  H    0.121592
 Sum of Mulliken charges =  -0.00000

 Dipole moment (field-independent basis, Debye):
    X=              0.3133    Y=             -0.2900    Z=              0.1006  Tot=              0.4386
 Quadrupole moment (field-independent basis, Debye-Ang):
   XX=            -58.5208   YY=            -59.0251   ZZ=            -56.4894
   XY=             -0.6697   XZ=             -2.9002   YZ=              0.5905

  Exact polarizability: 115.145   5.136  84.475   0.227   2.284  82.107
 Approx polarizability: 154.518  10.893 112.914  -1.616   4.097 125.922

                      1                      2                      3
                      A                      A                      A
 Frequencies --     54.8890                64.4626                95.2793
 Red. masses --      3.7717                 2.0865                 1.9862
 Frc consts  --      0.0067                 0.0051                 0.0106
 IR Inten    --      0.4442                 0.0806                 0.3982

                      4                      5                      6
                      A                      A                      A
 Frequencies --    118.8203               184.4974               198.2257
 Red. masses --      2.3230                 1.3876                 1.7146
 Frc consts  --      0.0193                 0.0278                 0.0397
 IR Inten    --      0.6801                 0.0916                 0.2750

                      7                      8                      9
                      A                      A                      A
 Frequencies --    237.4116               250.4547               266.6850
 Red. masses --      1.9051                 1.4679                 1.7888
 Frc consts  --      0.0633                 0.0543                 0.0750
 IR Inten    --      0.5317                 0.2800                 0.8018

                     10                     11                     12
                      A                      A                      A
 Frequencies --    299.7166               345.8201               362.6844
 Red. masses --      2.8066                 2.8296                 1.1981
 Frc consts  --      0.1485                 0.1994                 0.0929
 IR Inten    --      3.0532                 9.4810                26.5230

                     13                     14                     15
                      A                      A                      A
 Frequencies --    426.3039               469.8745               497.8810
 Red. masses --      2.5979                 2.7699                 3.0965
 Frc consts  --      0.2782                 0.3603                 0.4522
 IR Inten    --     14.7882                10.8403                 1.9512

                     16                     17                     18
                      A                      A                      A
 Frequencies --    614.7749               711.9425               742.8038
 Red. masses --      2.1050                 1.5387                 1.6565
 Frc consts  --      0.4687                 0.4595                 0.5385
 IR Inten    --      8.1765                 6.7696                 5.1116

                     19                     20                     21
                      A                      A                      A
 Frequencies --    773.8555               793.1697               845.1695
 Red. masses --      1.2269                 1.4093                 1.7272
 Frc consts  --      0.4329                 0.5224                 0.7269
 IR Inten    --      5.1860                44.2477                 8.9164

                     22                     23                     24
                      A                      A                      A
 Frequencies --    879.6283               932.3161               949.2898
 Red. masses --      1.7949                 1.7958                 1.7370
 Frc consts  --      0.8183                 0.9197                 0.9222
 IR Inten    --      2.4213                12.9144                77.7308

                     25                     26                     27
                      A                      A                      A
 Frequencies --   1004.1721              1019.7028              1035.8778
 Red. masses --      1.1389                 1.2702                 2.4564
 Frc consts  --      0.6767                 0.7782                 1.5530
 IR Inten    --     10.0928                 1.1342                 0.6747

                     28                     29                     30
                      A                      A                      A
 Frequencies --   1047.7106              1055.8500              1117.7218
 Red. masses --      2.3823                 1.6268                 1.7414
 Frc consts  --      1.5407                 1.0686                 1.2818
 IR Inten    --      0.3833                10.1766                23.8181

                     31                     32                     33
                      A                      A                      A
 Frequencies --   1131.2618              1167.1554              1221.7680
 Red. masses --      2.1912                 2.2406                 2.3755
 Frc consts  --      1.6522                 1.7984                 2.0892
 IR Inten    --     17.4118                21.0383                32.0627

                     34                     35                     36
                      A                      A                      A
 Frequencies --   1272.5366              1274.4360              1321.9597
 Red. masses --      1.5586                 1.5784                 1.3608
 Frc consts  --      1.4871                 1.5105                 1.4011
 IR Inten    --      8.0463                 7.3861                 0.3641

                     37                     38                     39
                      A                      A                      A
 Frequencies --   1328.8687              1329.9209              1343.7061
 Red. masses --      1.2213                 1.2268                 1.3105
 Frc consts  --      1.2707                 1.2785                 1.3941
 IR Inten    --     11.2568                 4.8091                 4.9119

                     40                     41                     42
                      A                      A                      A
 Frequencies --   1360.4814              1382.7008              1406.2653
 Red. masses --      1.4922                 1.5254                 1.2579
 Frc consts  --      1.6273                 1.7182                 1.4657
 IR Inten    --      8.9788                 1.3511                 6.2267

                     43                     44                     45
                      A                      A                      A
 Frequencies --   1413.7794              1420.2637              1458.2800
 Red. masses --      1.2250                 1.3864                 1.2735
 Frc consts  --      1.4426                 1.6477                 1.5956
 IR Inten    --      0.9658                48.9080                15.4727

                     46                     47                     48
                      A                      A                      A
 Frequencies --   1480.2336              1492.5272              1496.1492
 Red. masses --      1.0725                 1.0634                 1.0412
 Frc consts  --      1.3846                 1.3957                 1.3731
 IR Inten    --      2.6368                 0.2241                 4.2074

                     49                     50                     51
                      A                      A                      A
 Frequencies --   1501.3965              1506.2375              1509.3152
 Red. masses --      1.0463                 1.0588                 1.0661
 Frc consts  --      1.3897                 1.4153                 1.4310
 IR Inten    --      2.1841                 5.0102                 6.3622

                     52                     53                     54
                      A                      A                      A
 Frequencies --   1686.3385              1692.6735              3015.3578
 Red. masses --      1.1463                 3.7519                 1.0815
 Frc consts  --      1.9207                 6.3336                 5.7937
 IR Inten    --      1.7157               202.5413                 9.9517

                     55                     56                     57
                      A                      A                      A
 Frequencies --   3022.8727              3031.1210              3032.2209
 Red. masses --      1.0620                 1.0378                 1.0380
 Frc consts  --      5.7179                 5.6181                 5.6232
 IR Inten    --     23.1481                25.6020                28.2091

                     58                     59                     60
                      A                      A                      A
 Frequencies --   3047.2772              3064.0122              3081.4533
 Red. masses --      1.0599                 1.0989                 1.0989
 Frc consts  --      5.7990                 6.0785                 6.1478
 IR Inten    --     24.5178                 8.3695                 4.2362

                     61                     62                     63
                      A                      A                      A
 Frequencies --   3096.6283              3099.8970              3107.8071
 Red. masses --      1.1003                 1.1006                 1.1010
 Frc consts  --      6.2162                 6.2313                 6.2653
 IR Inten    --     32.4470                56.8105                24.7851

                     64                     65                     66
                      A                      A                      A
 Frequencies --   3115.7886              3160.6324              3176.4017
 Red. masses --      1.1011                 1.0810                 1.0678
 Frc consts  --      6.2983                 6.3623                 6.3473
 IR Inten    --     47.0171                14.6046                 0.1461

                     67                     68                     69
                      A                      A                      A
 Frequencies --   3258.2283              3397.0381              3505.8943
 Red. masses --      1.1142                 1.0544                 1.0862
 Frc consts  --      6.9690                 7.1690                 7.8660
 IR Inten    --      9.2118                 7.5070                 0.3294

 - Thermochemistry -
 -------------------
 Temperature   298.150 Kelvin.  Pressure   1.00000 Atm.
 Atom     1 has atomic number  6 and mass  12.00000

 Molecular mass:   128.13135 amu.
 Principal axes and moments of inertia in atomic units:
                           1         2         3
     Eigenvalues --   979.919001590.867712108.06573
           X            0.99996  -0.00464  -0.00703
           Y            0.00460   0.99998  -0.00450
           Z            0.00705   0.00446   0.99997
 This molecule is an asymmetric top.
 Rotational symmetry number  1.
 Warning -- assumption of classical behavior for rotation
           may cause significant error
 Rotational temperatures (Kelvin)      0.08839     0.05444     0.04109
 Rotational constants (GHZ):           1.84172     1.13444     0.85611
 Zero-point vibrational energy     596983.7 (Joules/Mol)
                                  142.68252 (Kcal/Mol)
 Warning -- explicit consideration of  16 degrees of freedom as
           vibrations may cause significant error
 Vibrational temperatures:     78.97    92.75   137.09   170.96   265.45
          (Kelvin)            285.20   341.58   360.35   383.70   431.23
                              497.56   521.82   613.36   676.04   716.34
                              884.52  1024.33  1068.73  1113.41  1141.19
                             1216.01  1265.59  1341.39  1365.82  1444.78
                             1467.12  1490.40  1507.42  1519.13  1608.15
                             1627.63  1679.28  1757.85  1830.90  1833.63
                             1902.01  1911.95  1913.46  1933.29  1957.43
                             1989.40  2023.30  2034.11  2043.44  2098.14
                             2129.73  2147.41  2152.63  2160.17  2167.14
                             2171.57  2426.26  2435.38  4338.43  4349.24
                             4361.11  4362.69  4384.35  4408.43  4433.52
                             4455.36  4460.06  4471.44  4482.92  4547.45
                             4570.13  4687.86  4887.58  5044.20

 Zero-point correction=                           0.227379 (Hartree/Particle)
 Thermal correction to Energy=                    0.238904
 Thermal correction to Enthalpy=                  0.239848
 Thermal correction to Gibbs Free Energy=         0.190353
 Sum of electronic and zero-point Energies=           -385.636774
 Sum of electronic and thermal Energies=              -385.625250
 Sum of electronic and thermal Enthalpies=            -385.624305
 Sum of electronic and thermal Free Energies=         -385.673800

                     E (Thermal)             CV                S
                      KCal/Mol        Cal/Mol-Kelvin    Cal/Mol-Kelvin
 Total                  149.914             42.150            104.170
 Electronic               0.000              0.000              0.000
 Translational            0.889              2.981             40.457
 Rotational               0.889              2.981             29.576
 Vibrational            148.137             36.188             34.137
 Vibration     1          0.596              1.976              4.633
 Vibration     2          0.597              1.971              4.316
 Vibration     3          0.603              1.953              3.549
 Vibration     4          0.609              1.934              3.119
 Vibration     5          0.631              1.861              2.282
 Vibration     6          0.637              1.842              2.150
 Vibration     7          0.656              1.783              1.822
 Vibration     8          0.663              1.762              1.727
 Vibration     9          0.672              1.734              1.618
 Vibration    10          0.692              1.674              1.418
 Vibration    11          0.724              1.584              1.185
 Vibration    12          0.737              1.549              1.111
 Vibration    13          0.788              1.413              0.871
 Vibration    14          0.827              1.317              0.738
 Vibration    15          0.853              1.255              0.663
 Vibration    16          0.974              1.001              0.425

 Optimization completed.
    -- Stationary point found.
 Normal termination of Gaussian 16 at Mon May 31 16:53:35 2021.
