 Gaussian 16, Revision A.03,
 Gaussian 16:  ES64L-G16RevA.03 25-Dec-2016

 -----------------------------
 # opt freq b3lyp/6-31g(2df,p)
 -----------------------------

 -------------------
 Title Card Required
 -------------------
 Symbolic Z-matrix:
 Charge =  0 Multiplicity = 1

 SCF Done:  E(RB3LYP) =  -323.236724601     A.U. after   13 cycles
 SCF Done:  E(RB3LYP) =  -323.244123063     A.U. after   12 cycles
 SCF Done:  E(RB3LYP) =  -323.250028601     A.U. after   12 cycles
 SCF Done:  E(RB3LYP) =  -323.254025261     A.U. after   13 cycles
 SCF Done:  E(RB3LYP) =  -323.254968101     A.U. after   11 cycles
 SCF Done:  E(RB3LYP) =  -323.255502430     A.U. after   11 cycles
 SCF Done:  E(RB3LYP) =  -323.255972983     A.U. after   11 cycles
 SCF Done:  E(RB3LYP) =  -323.256344848     A.U. after   11 cycles
 SCF Done:  E(RB3LYP) =  -323.256677988     A.U. after   10 cycles
 SCF Done:  E(RB3LYP) =  -323.256717272     A.U. after   10 cycles
 SCF Done:  E(RB3LYP) =  -323.256724002     A.U. after    9 cycles
 SCF Done:  E(RB3LYP) =  -323.256726701     A.U. after    8 cycles
 SCF Done:  E(RB3LYP) =  -323.256728215     A.U. after    8 cycles
 SCF Done:  E(RB3LYP) =  -323.256728514     A.U. after    7 cycles
 SCF Done:  E(RB3LYP) =  -323.256728618     A.U. after    7 cycles
 Optimization completed.
    -- Stationary point found.
 Normal termination of Gaussian 16 at Mon May 31 12:32:18 2021.

 ----------------------------------------------------------------------
 #N Geom=AllCheck Guess=TCheck SCRF=Check GenChk RB3LYP/6-31G(2df,p) Fr
 eq
 ----------------------------------------------------------------------

 Structure from the checkpoint file:  "CdCNNpCpCN.chk"
 -------------------
 Title Card Required
 -------------------
 Charge =  0 Multiplicity = 1

                         Standard orientation:
 ---------------------------------------------------------------------
 Center     Atomic      Atomic             Coordinates (Angstroms)
 Number     Number       Type             X           Y           Z
 ---------------------------------------------------------------------
      1          6           0       -2.998169   -0.511982    0.091143
      2          6           0       -1.838715   -0.110269   -0.436215
      3          7           0       -0.849624    0.623179    0.208978
      4          7           0        0.474771    0.394117   -0.220001
      5          6           0        1.262832    1.610143   -0.068990
      6          6           0        1.070251   -0.767664    0.444778
      7          7           0        2.318125   -1.117014   -0.214991
      8          1           0       -3.746730   -0.985846   -0.529415
      9          1           0       -3.247672   -0.348612    1.134657
     10          1           0       -1.593600   -0.286943   -1.479573
     11          1           0       -0.955236    0.677423    1.222788
     12          1           0        0.822611    2.400502   -0.679817
     13          1           0        2.281204    1.404966   -0.401033
     14          1           0        1.302078    1.958499    0.980051
     15          1           0        0.301666   -1.554709    0.424957
     16          1           0        1.301458   -0.554793    1.507128
     17          1           0        2.124422   -1.536953   -1.118601
     18          1           0        2.829698   -1.796874    0.336666
 ---------------------------------------------------------------------

 SCF Done:  E(RB3LYP) =  -323.256728618     A.U. after    1 cycles

 The electronic state is 1-A.
 Alpha  occ. eigenvalues --  -14.35301 -14.34903 -14.31549 -10.23237 -10.20331
 Alpha  occ. eigenvalues --  -10.19179 -10.15152  -0.99080  -0.88901  -0.82033
 Alpha  occ. eigenvalues --   -0.71476  -0.68668  -0.60663  -0.58464  -0.51880
 Alpha  occ. eigenvalues --   -0.49346  -0.47113  -0.45358  -0.43325  -0.41382
 Alpha  occ. eigenvalues --   -0.40454  -0.37884  -0.36881  -0.35919  -0.31677
 Alpha  occ. eigenvalues --   -0.24847  -0.23326  -0.19711
 Alpha virt. eigenvalues --    0.04352   0.08511   0.09096   0.12331   0.13849
 Alpha virt. eigenvalues --    0.14278   0.15628   0.15896   0.17576   0.17852
 Alpha virt. eigenvalues --    0.18164   0.20164   0.21253   0.23804   0.24749

 Mulliken charges:
               1
     1  C   -0.407470
     2  C    0.126179
     3  N   -0.269332
     4  N   -0.057891
     5  C   -0.300589
     6  C   -0.092845
     7  N   -0.499914
     8  H    0.105998
     9  H    0.084644
    10  H    0.104409
    11  H    0.216526
    12  H    0.124275
    13  H    0.142474
    14  H    0.083924
    15  H    0.099638
    16  H    0.075851
    17  H    0.232939
    18  H    0.231185
 Sum of Mulliken charges =  -0.00000

 Dipole moment (field-independent basis, Debye):
    X=              1.1296    Y=             -1.2398    Z=              0.9275  Tot=              1.9166
 Quadrupole moment (field-independent basis, Debye-Ang):
   XX=            -47.0523   YY=            -42.1724   ZZ=            -41.1634
   XY=             -2.3277   XZ=              0.2272   YZ=              1.3675

  Exact polarizability:  92.142   7.402  59.192  -2.740   1.398  59.120
 Approx polarizability: 119.356  12.895  81.976  -6.891   1.161  89.929

                      1                      2                      3
                      A                      A                      A
 Frequencies --     80.4877               112.4638               146.5399
 Red. masses --      3.7624                 2.4897                 1.8335
 Frc consts  --      0.0144                 0.0186                 0.0232
 IR Inten    --      3.7469                 2.5138                 0.4948

                      4                      5                      6
                      A                      A                      A
 Frequencies --    224.4578               231.0022               269.1970
 Red. masses --      1.4506                 1.1546                 1.3628
 Frc consts  --      0.0431                 0.0363                 0.0582
 IR Inten    --      1.5388                24.2539                22.8788

                      7                      8                      9
                      A                      A                      A
 Frequencies --    304.4124               377.2718               447.0019
 Red. masses --      2.7008                 2.3414                 3.1460
 Frc consts  --      0.1475                 0.1963                 0.3704
 IR Inten    --      2.4740                 1.4913                 5.0570

                     10                     11                     12
                      A                      A                      A
 Frequencies --    460.1475               558.6662               665.0215
 Red. masses --      2.8682                 2.3845                 1.4198
 Frc consts  --      0.3578                 0.4385                 0.3699
 IR Inten    --      3.5495                42.5277                42.2508

                     13                     14                     15
                      A                      A                      A
 Frequencies --    738.0070               818.6479               825.1901
 Red. masses --      1.8528                 1.4515                 1.4205
 Frc consts  --      0.5946                 0.5731                 0.5699
 IR Inten    --     28.5296                64.7668               151.2733

                     16                     17                     18
                      A                      A                      A
 Frequencies --    885.2205               942.6649               993.2929
 Red. masses --      1.9624                 1.6826                 1.5726
 Frc consts  --      0.9060                 0.8809                 0.9141
 IR Inten    --     26.1738                 7.9247                 4.4623

                     19                     20                     21
                      A                      A                      A
 Frequencies --   1024.5323              1087.2398              1097.6963
 Red. masses --      1.1321                 2.2588                 2.2839
 Frc consts  --      0.7002                 1.5732                 1.6214
 IR Inten    --     24.1539                13.0498                32.2140

                     22                     23                     24
                      A                      A                      A
 Frequencies --   1148.0211              1196.8380              1224.5624
 Red. masses --      1.3299                 1.9781                 3.1246
 Frc consts  --      1.0327                 1.6694                 2.7606
 IR Inten    --      8.4175                 5.8672                33.7925

                     25                     26                     27
                      A                      A                      A
 Frequencies --   1268.7664              1279.7653              1317.1742
 Red. masses --      2.2177                 2.1472                 1.2051
 Frc consts  --      2.1034                 2.0720                 1.2319
 IR Inten    --     19.8434                29.2620                 5.3708

                     28                     29                     30
                      A                      A                      A
 Frequencies --   1353.6603              1408.4954              1424.4597
 Red. masses --      1.2913                 1.2025                 1.1953
 Frc consts  --      1.3941                 1.4055                 1.4290
 IR Inten    --      3.2121                16.6246                 5.9006

                     31                     32                     33
                      A                      A                      A
 Frequencies --   1452.0494              1486.4666              1500.8384
 Red. masses --      1.2545                 1.1011                 1.0807
 Frc consts  --      1.5584                 1.4335                 1.4343
 IR Inten    --     20.7079                10.0921                 6.9546

                     34                     35                     36
                      A                      A                      A
 Frequencies --   1509.2748              1521.5821              1645.1321
 Red. masses --      1.1580                 1.1247                 1.1002
 Frc consts  --      1.5542                 1.5342                 1.7544
 IR Inten    --      3.6787                 1.7179                27.6088

                     37                     38                     39
                      A                      A                      A
 Frequencies --   1710.6388              2911.4485              2936.9985
 Red. masses --      4.3499                 1.0683                 1.0608
 Frc consts  --      7.4998                 5.3354                 5.3912
 IR Inten    --    137.8531                63.2458                92.7547

                     40                     41                     42
                      A                      A                      A
 Frequencies --   2995.2161              3097.3863              3153.8547
 Red. masses --      1.0912                 1.0704                 1.1028
 Frc consts  --      5.7680                 6.0506                 6.4631
 IR Inten    --     45.9772                25.1907                 8.8837

                     43                     44                     45
                      A                      A                      A
 Frequencies --   3155.0187              3181.3332              3250.0522
 Red. masses --      1.0618                 1.0912                 1.1123
 Frc consts  --      6.2274                 6.5069                 6.9226
 IR Inten    --      5.8386                 3.7304                10.3155

                     46                     47                     48
                      A                      A                      A
 Frequencies --   3422.2208              3505.1501              3592.1626
 Red. masses --      1.0737                 1.0491                 1.0930
 Frc consts  --      7.4090                 7.5944                 8.3099
 IR Inten    --     15.6203                 0.3011                 1.3688

 - Thermochemistry -
 -------------------
 Temperature   298.150 Kelvin.  Pressure   1.00000 Atm.
 Atom     1 has atomic number  6 and mass  12.00000

 Molecular mass:   101.09530 amu.
 Principal axes and moments of inertia in atomic units:
                           1         2         3
     Eigenvalues --   377.388191205.654311458.34005
           X            0.99993   0.01209   0.00002
           Y           -0.01209   0.99988   0.00997
           Z            0.00010  -0.00997   0.99995
 This molecule is an asymmetric top.
 Rotational symmetry number  1.
 Rotational temperatures (Kelvin)      0.22951     0.07184     0.05939
 Rotational constants (GHZ):           4.78219     1.49690     1.23753
 Zero-point vibrational energy     418320.5 (Joules/Mol)
                                   99.98100 (Kcal/Mol)
 Warning -- explicit consideration of  11 degrees of freedom as
           vibrations may cause significant error
 Vibrational temperatures:    115.80   161.81   210.84   322.94   332.36
          (Kelvin)            387.31   437.98   542.81   643.14   662.05
                              803.80   956.82  1061.83  1177.85  1187.26
                             1273.63  1356.28  1429.13  1474.07  1564.30
                             1579.34  1651.75  1721.98  1761.87  1825.47
                             1841.30  1895.12  1947.62  2026.51  2049.48
                             2089.18  2138.69  2159.37  2171.51  2189.22
                             2366.98  2461.23  4188.93  4225.69  4309.45
                             4456.45  4537.69  4539.37  4577.23  4676.10
                             4923.81  5043.13  5168.32

 Zero-point correction=                           0.159330 (Hartree/Particle)
 Thermal correction to Energy=                    0.167983
 Thermal correction to Enthalpy=                  0.168927
 Thermal correction to Gibbs Free Energy=         0.126446
 Sum of electronic and zero-point Energies=           -323.097399
 Sum of electronic and thermal Energies=              -323.088746
 Sum of electronic and thermal Enthalpies=            -323.087802
 Sum of electronic and thermal Free Energies=         -323.130282

                     E (Thermal)             CV                S
                      KCal/Mol        Cal/Mol-Kelvin    Cal/Mol-Kelvin
 Total                  105.411             31.156             89.407
 Electronic               0.000              0.000              0.000
 Translational            0.889              2.981             39.750
 Rotational               0.889              2.981             27.986
 Vibrational            103.633             25.195             21.671
 Vibration     1          0.600              1.962              3.879
 Vibration     2          0.607              1.939              3.226
 Vibration     3          0.617              1.906              2.717
 Vibration     4          0.649              1.804              1.923
 Vibration     5          0.653              1.794              1.871
 Vibration     6          0.674              1.730              1.601
 Vibration     7          0.695              1.665              1.393
 Vibration     8          0.748              1.519              1.050
 Vibration     9          0.806              1.368              0.805
 Vibration    10          0.818              1.338              0.766
 Vibration    11          0.914              1.121              0.527

 Optimization completed.
    -- Stationary point found.
 Normal termination of Gaussian 16 at Mon May 31 12:50:47 2021.
