 Gaussian 16, Revision A.03,
 Gaussian 16:  ES64L-G16RevA.03 25-Dec-2016

 -----------------------------
 # opt freq b3lyp/6-31g(2df,p)
 -----------------------------

 -------------------
 Title Card Required
 -------------------
 Symbolic Z-matrix:
 Charge =  0 Multiplicity = 1

 SCF Done:  E(RB3LYP) =  -322.077519481     A.U. after   14 cycles
 SCF Done:  E(RB3LYP) =  -322.082238608     A.U. after   11 cycles
 SCF Done:  E(RB3LYP) =  -322.082518944     A.U. after   10 cycles
 SCF Done:  E(RB3LYP) =  -322.082541245     A.U. after   10 cycles
 SCF Done:  E(RB3LYP) =  -322.082544899     A.U. after    8 cycles
 Optimization completed.
    -- Stationary point found.
 Normal termination of Gaussian 16 at Tue Jun  1 00:18:43 2021.

 ----------------------------------------------------------------------
 #N Geom=AllCheck Guess=TCheck SCRF=Check GenChk RB3LYP/6-31G(2df,p) Fr
 eq
 ----------------------------------------------------------------------

 Structure from the checkpoint file:  "CdCNCCpdNpN.chk"
 -------------------
 Title Card Required
 -------------------
 Charge =  0 Multiplicity = 1

                         Standard orientation:
 ---------------------------------------------------------------------
 Center     Atomic      Atomic             Coordinates (Angstroms)
 Number     Number       Type             X           Y           Z
 ---------------------------------------------------------------------
      1          6           0        3.331498    0.233718    0.000097
      2          6           0        2.165486   -0.422621   -0.000064
      3          7           0        0.904765    0.125531    0.000036
      4          6           0       -0.290836   -0.666886   -0.000113
      5          6           0       -1.583449    0.149245   -0.000024
      6          7           0       -1.732472    1.417674   -0.000087
      7          7           0       -2.690808   -0.653701    0.000138
      8          1           0        4.263618   -0.313508   -0.000012
      9          1           0        3.386754    1.317231    0.000338
     10          1           0        2.156457   -1.510806   -0.000304
     11          1           0        0.819346    1.126755    0.000272
     12          1           0       -0.328011   -1.328507    0.881350
     13          1           0       -0.327969   -1.328237   -0.881780
     14          1           0       -0.851151    1.921718   -0.000236
     15          1           0       -2.629450   -1.654020    0.000191
     16          1           0       -3.596190   -0.217895    0.000188
 ---------------------------------------------------------------------

 SCF Done:  E(RB3LYP) =  -322.082544899     A.U. after    1 cycles

 The electronic state is 1-A.
 Alpha  occ. eigenvalues --  -14.34266 -14.33907 -14.28865 -10.26085 -10.23450
 Alpha  occ. eigenvalues --  -10.21042 -10.14756  -0.95453  -0.92298  -0.84567
 Alpha  occ. eigenvalues --   -0.75462  -0.69129  -0.59566  -0.59183  -0.54688
 Alpha  occ. eigenvalues --   -0.48431  -0.47455  -0.46699  -0.45546  -0.42047
 Alpha  occ. eigenvalues --   -0.39898  -0.36090  -0.36035  -0.31432  -0.25925
 Alpha  occ. eigenvalues --   -0.23680  -0.18960
 Alpha virt. eigenvalues --    0.03205   0.05483   0.07099   0.07707   0.10207
 Alpha virt. eigenvalues --    0.12705   0.14387   0.15562   0.18189   0.19327
 Alpha virt. eigenvalues --    0.21111   0.23936   0.25527   0.28859   0.32617

 Mulliken charges:
               1
     1  C   -0.419695
     2  C    0.128012
     3  N   -0.296944
     4  C   -0.208466
     5  C    0.349269
     6  N   -0.523417
     7  N   -0.508009
     8  H    0.103161
     9  H    0.082450
    10  H    0.093047
    11  H    0.234025
    12  H    0.119724
    13  H    0.119743
    14  H    0.207163
    15  H    0.257362
    16  H    0.262574
 Sum of Mulliken charges =  -0.00000

 Dipole moment (field-independent basis, Debye):
    X=             -1.1035    Y=             -2.5524    Z=              0.0000  Tot=              2.7807
 Quadrupole moment (field-independent basis, Debye-Ang):
   XX=            -43.7786   YY=            -39.4929   ZZ=            -46.0700
   XY=              7.2650   XZ=             -0.0008   YZ=              0.0007

  Exact polarizability:  95.540   8.019  68.958   0.000   0.001  35.638
 Approx polarizability: 121.155  14.210 111.753   0.001   0.002  54.255

 ******    3 imaginary frequencies (negative Signs) ******

                      1                      2                      3
                      A                      A                      A
 Frequencies --   -375.3604              -350.1819              -115.1790
 Red. masses --      1.1501                 1.2566                 2.7151
 Frc consts  --      0.0955                 0.0908                 0.0212
 IR Inten    --    181.3032                 7.1832                 6.0340

                      4                      5                      6
                      A                      A                      A
 Frequencies --     13.0119               148.3327               195.0374
 Red. masses --      3.6649                 3.4821                 1.5923
 Frc consts  --      0.0004                 0.0451                 0.0357
 IR Inten    --      0.1139                 3.2531                 4.8760

                      7                      8                      9
                      A                      A                      A
 Frequencies --    351.2448               373.2217               448.8565
 Red. masses --      3.7884                 3.6915                 1.1766
 Frc consts  --      0.2754                 0.3030                 0.1397
 IR Inten    --      4.7362                 1.2108                18.3942

                     10                     11                     12
                      A                      A                      A
 Frequencies --    539.2990               563.2095               581.6159
 Red. masses --      2.4735                 2.1554                 2.8967
 Frc consts  --      0.4239                 0.4028                 0.5773
 IR Inten    --     12.3829                44.5122                11.1364

                     13                     14                     15
                      A                      A                      A
 Frequencies --    677.6503               761.7798               788.0921
 Red. masses --      1.4338                 1.1536                 1.4606
 Frc consts  --      0.3879                 0.3944                 0.5345
 IR Inten    --      3.8161                53.5208                47.4971

                     16                     17                     18
                      A                      A                      A
 Frequencies --    863.3971               962.8724              1004.1057
 Red. masses --      2.8003                 1.6583                 1.1411
 Frc consts  --      1.2299                 0.9058                 0.6779
 IR Inten    --      3.5307                 0.7430                11.5166

                     19                     20                     21
                      A                      A                      A
 Frequencies --   1030.6636              1095.7306              1122.4494
 Red. masses --      1.8148                 1.8512                 1.3829
 Frc consts  --      1.1358                 1.3095                 1.0265
 IR Inten    --      2.2045                18.2299               125.3101

                     22                     23                     24
                      A                      A                      A
 Frequencies --   1204.8900              1267.4917              1274.4070
 Red. masses --      3.1751                 1.0676                 2.5821
 Frc consts  --      2.7158                 1.0105                 2.4708
 IR Inten    --      1.6622                 0.1757                93.3083

                     25                     26                     27
                      A                      A                      A
 Frequencies --   1330.1253              1349.1539              1388.8121
 Red. masses --      1.3331                 1.2727                 1.7684
 Frc consts  --      1.3896                 1.3649                 2.0096
 IR Inten    --     35.3810                93.0453                76.9067

                     28                     29                     30
                      A                      A                      A
 Frequencies --   1449.2891              1504.9860              1527.3247
 Red. masses --      1.5465                 1.3376                 1.1953
 Frc consts  --      1.9138                 1.7850                 1.6428
 IR Inten    --     35.9456                 7.3192                53.1459

                     31                     32                     33
                      A                      A                      A
 Frequencies --   1622.4412              1720.2909              1728.6455
 Red. masses --      1.2679                 5.2217                 5.2712
 Frc consts  --      1.9664                 9.1048                 9.2805
 IR Inten    --     78.5284               397.2192               114.2416

                     34                     35                     36
                      A                      A                      A
 Frequencies --   2955.8238              2969.5429              3152.7724
 Red. masses --      1.0557                 1.1028                 1.0781
 Frc consts  --      5.4342                 5.7299                 6.3140
 IR Inten    --     85.7659                37.1324                14.4309

                     37                     38                     39
                      A                      A                      A
 Frequencies --   3160.2975              3256.5350              3532.3496
 Red. masses --      1.0731                 1.1123                 1.0752
 Frc consts  --      6.3143                 6.9497                 7.9046
 IR Inten    --      0.6471                 9.4578                 3.0101

                     40                     41                     42
                      A                      A                      A
 Frequencies --   3632.6319              3657.2405              3768.5064
 Red. masses --      1.0451                 1.0750                 1.1043
 Frc consts  --      8.1256                 8.4712                 9.2403
 IR Inten    --     51.4559                29.0181                41.5763

 - Thermochemistry -
 -------------------
 Temperature   298.150 Kelvin.  Pressure   1.00000 Atm.
 Atom     1 has atomic number  6 and mass  12.00000

 Molecular mass:    99.07965 amu.
 Principal axes and moments of inertia in atomic units:
                           1         2         3
     Eigenvalues --   213.266291546.936441749.01474
           X            0.99991   0.01356  -0.00000
           Y           -0.01356   0.99991   0.00001
           Z            0.00000  -0.00001   1.00000
 This molecule is an asymmetric top.
 Rotational symmetry number  1.
 Rotational temperatures (Kelvin)      0.40613     0.05599     0.04952
 Rotational constants (GHZ):           8.46238     1.16666     1.03186
    3 imaginary frequencies ignored.
 Zero-point vibrational energy     352743.6 (Joules/Mol)
                                   84.30775 (Kcal/Mol)
 Warning -- explicit consideration of   9 degrees of freedom as
           vibrations may cause significant error
 Vibrational temperatures:     18.72   213.42   280.62   505.36   536.98
          (Kelvin)            645.80   775.93   810.33   836.82   974.99
                             1096.03  1133.89  1242.24  1385.36  1444.68
                             1482.89  1576.51  1614.95  1733.57  1823.64
                             1833.59  1913.75  1941.13  1998.19  2085.20
                             2165.34  2197.48  2334.33  2475.11  2487.14
                             4252.77  4272.51  4536.14  4546.96  4685.43
                             5082.26  5226.55  5261.95  5422.04

 Zero-point correction=                           0.134353 (Hartree/Particle)
 Thermal correction to Energy=                    0.141431
 Thermal correction to Enthalpy=                  0.142375
 Thermal correction to Gibbs Free Energy=         0.101481
 Sum of electronic and zero-point Energies=           -321.948192
 Sum of electronic and thermal Energies=              -321.941114
 Sum of electronic and thermal Enthalpies=            -321.940170
 Sum of electronic and thermal Free Energies=         -321.981064

                     E (Thermal)             CV                S
                      KCal/Mol        Cal/Mol-Kelvin    Cal/Mol-Kelvin
 Total                   88.749             25.245             86.068
 Electronic               0.000              0.000              0.000
 Translational            0.889              2.981             39.690
 Rotational               0.889              2.981             27.847
 Vibrational             86.972             19.284             18.531
 Vibration     1          0.593              1.987              7.488
 Vibration     2          0.618              1.904              2.694
 Vibration     3          0.636              1.847              2.179
 Vibration     4          0.728              1.573              1.161
 Vibration     5          0.745              1.527              1.067
 Vibration     6          0.808              1.363              0.799
 Vibration     7          0.894              1.163              0.567
 Vibration     8          0.919              1.111              0.517
 Vibration     9          0.938              1.071              0.482

 Optimization completed.
    -- Stationary point found.
 Normal termination of Gaussian 16 at Tue Jun  1 00:34:17 2021.
