 Gaussian 16, Revision A.03,
 Gaussian 16:  ES64L-G16RevA.03 25-Dec-2016

 -----------------------------
 # opt freq b3lyp/6-31g(2df,p)
 -----------------------------

 -------------------
 Title Card Required
 -------------------
 Symbolic Z-matrix:
 Charge =  0 Multiplicity = 1

 SCF Done:  E(RB3LYP) =  -401.868993922     A.U. after   13 cycles
 SCF Done:  E(RB3LYP) =  -401.880654036     A.U. after   11 cycles
 SCF Done:  E(RB3LYP) =  -401.882634583     A.U. after   11 cycles
 SCF Done:  E(RB3LYP) =  -401.886258434     A.U. after   11 cycles
 SCF Done:  E(RB3LYP) =  -401.891398813     A.U. after   12 cycles
 SCF Done:  E(RB3LYP) =  -401.895996420     A.U. after   14 cycles
 SCF Done:  E(RB3LYP) =  -401.899976676     A.U. after   11 cycles
 SCF Done:  E(RB3LYP) =  -401.902004829     A.U. after   11 cycles
 SCF Done:  E(RB3LYP) =  -401.904158059     A.U. after   12 cycles
 SCF Done:  E(RB3LYP) =  -401.904805263     A.U. after   11 cycles
 SCF Done:  E(RB3LYP) =  -401.907039351     A.U. after   11 cycles
 SCF Done:  E(RB3LYP) =  -401.907832696     A.U. after   11 cycles
 SCF Done:  E(RB3LYP) =  -401.908102014     A.U. after   10 cycles
 SCF Done:  E(RB3LYP) =  -401.908158938     A.U. after   10 cycles
 SCF Done:  E(RB3LYP) =  -401.908183317     A.U. after    9 cycles
 SCF Done:  E(RB3LYP) =  -401.908193985     A.U. after    9 cycles
 SCF Done:  E(RB3LYP) =  -401.908195506     A.U. after    7 cycles
 SCF Done:  E(RB3LYP) =  -401.908195716     A.U. after    7 cycles
 SCF Done:  E(RB3LYP) =  -401.908195781     A.U. after    7 cycles
 Optimization completed.
    -- Stationary point found.
 Normal termination of Gaussian 16 at Tue Jun  1 22:35:35 2021.

 ----------------------------------------------------------------------
 #N Geom=AllCheck Guess=TCheck SCRF=Check GenChk RB3LYP/6-31G(2df,p) Fr
 eq
 ----------------------------------------------------------------------

 Structure from the checkpoint file:  "CdCNpCNCpCNC.chk"
 -------------------
 Title Card Required
 -------------------
 Charge =  0 Multiplicity = 1

                         Standard orientation:
 ---------------------------------------------------------------------
 Center     Atomic      Atomic             Coordinates (Angstroms)
 Number     Number       Type             X           Y           Z
 ---------------------------------------------------------------------
      1          6           0        1.558651    2.244545    0.645818
      2          6           0        0.395330    1.940399    0.062259
      3          7           0        0.055843    0.773734   -0.612693
      4          6           0        1.033970   -0.270632   -0.805546
      5          7           0        1.293495   -1.052552    0.399953
      6          6           0        2.240176   -2.132602    0.169073
      7          6           0       -1.331881    0.406422   -0.697035
      8          7           0       -1.771823   -0.402530    0.446740
      9          6           0       -3.168463   -0.811601    0.352620
     10          1           0        1.708405    3.237073    1.050410
     11          1           0        2.365112    1.531104    0.747780
     12          1           0       -0.407421    2.676026    0.039825
     13          1           0        1.977783    0.193000   -1.121223
     14          1           0        0.678623   -0.896435   -1.646527
     15          1           0        0.400815   -1.419255    0.719888
     16          1           0        3.222772   -1.716029   -0.084092
     17          1           0        1.956799   -2.822885   -0.647993
     18          1           0        2.356656   -2.721367    1.083364
     19          1           0       -1.495592   -0.198632   -1.598620
     20          1           0       -1.924521    1.331217   -0.812709
     21          1           0       -1.624630    0.137504    1.294980
     22          1           0       -3.295111   -1.483143   -0.504271
     23          1           0       -3.877476    0.025514    0.225091
     24          1           0       -3.451518   -1.363445    1.252957
 ---------------------------------------------------------------------

 SCF Done:  E(RB3LYP) =  -401.908195781     A.U. after    1 cycles

 The electronic state is 1-A.
 Alpha  occ. eigenvalues --  -14.33662 -14.32170 -14.29898 -10.23958 -10.22713
 Alpha  occ. eigenvalues --  -10.20768 -10.20136 -10.19322 -10.14398  -0.95850
 Alpha  occ. eigenvalues --   -0.89714  -0.87036  -0.74079  -0.70966  -0.66884
 Alpha  occ. eigenvalues --   -0.63309  -0.62486  -0.55226  -0.51072  -0.49663
 Alpha  occ. eigenvalues --   -0.46684  -0.45662  -0.43662  -0.43204  -0.42170
 Alpha  occ. eigenvalues --   -0.41248  -0.38499  -0.38299  -0.37832  -0.36714
 Alpha  occ. eigenvalues --   -0.35775  -0.34704  -0.30346  -0.23646  -0.21408
 Alpha  occ. eigenvalues --   -0.19056
 Alpha virt. eigenvalues --    0.05082   0.08214   0.10197   0.10567   0.11711
 Alpha virt. eigenvalues --    0.13406   0.14077   0.15513   0.16171   0.16415
 Alpha virt. eigenvalues --    0.17181   0.17697   0.18491   0.18980   0.19537

 Mulliken charges:
               1
     1  C   -0.394996
     2  C    0.061798
     3  N   -0.033013
     4  C   -0.116397
     5  N   -0.278954
     6  C   -0.308019
     7  C   -0.138232
     8  N   -0.276214
     9  C   -0.312863
    10  H    0.095074
    11  H    0.108939
    12  H    0.089347
    13  H    0.110299
    14  H    0.077549
    15  H    0.222765
    16  H    0.117613
    17  H    0.087629
    18  H    0.117820
    19  H    0.105176
    20  H    0.089980
    21  H    0.227115
    22  H    0.125105
    23  H    0.097959
    24  H    0.124521
 Sum of Mulliken charges =   0.00000

 Dipole moment (field-independent basis, Debye):
    X=             -2.0153    Y=             -0.7619    Z=             -0.4404  Tot=              2.1991
 Quadrupole moment (field-independent basis, Debye-Ang):
   XX=            -54.0406   YY=            -57.2536   ZZ=            -57.7846
   XY=             -2.4743   XZ=             -1.6668   YZ=              0.6110

  Exact polarizability: 106.240   4.710  95.749   7.010   6.091  72.853
 Approx polarizability: 140.734   8.448 125.683  14.526  10.606 112.904

                      1                      2                      3
                      A                      A                      A
 Frequencies --     60.6579                71.6538                99.6428
 Red. masses --      3.1078                 2.8535                 3.2920
 Frc consts  --      0.0067                 0.0086                 0.0193
 IR Inten    --      2.0852                 0.9812                 1.2810

                      4                      5                      6
                      A                      A                      A
 Frequencies --    117.2408               153.7097               189.7811
 Red. masses --      1.9992                 1.7418                 1.7610
 Frc consts  --      0.0162                 0.0242                 0.0374
 IR Inten    --      0.4446                 0.3959                 0.9625

                      7                      8                      9
                      A                      A                      A
 Frequencies --    232.9506               239.0951               265.3991
 Red. masses --      1.4554                 1.2876                 2.6870
 Frc consts  --      0.0465                 0.0434                 0.1115
 IR Inten    --      0.8835                 1.2403                 1.8207

                     10                     11                     12
                      A                      A                      A
 Frequencies --    293.7842               308.6522               415.0903
 Red. masses --      1.9566                 2.7604                 3.1835
 Frc consts  --      0.0995                 0.1549                 0.3232
 IR Inten    --      2.7312                 0.1569                 0.1432

                     13                     14                     15
                      A                      A                      A
 Frequencies --    429.6346               517.5124               618.0746
 Red. masses --      2.1794                 3.6427                 2.5148
 Frc consts  --      0.2370                 0.5748                 0.5660
 IR Inten    --      1.3772                 5.2758                 5.0328

                     16                     17                     18
                      A                      A                      A
 Frequencies --    707.7067               803.3384               816.1321
 Red. masses --      1.6380                 1.2923                 1.3924
 Frc consts  --      0.4834                 0.4914                 0.5464
 IR Inten    --      5.1708                69.8789                36.8145

                     19                     20                     21
                      A                      A                      A
 Frequencies --    853.7033               867.9491               961.2328
 Red. masses --      2.0945                 1.5346                 2.0066
 Frc consts  --      0.8994                 0.6811                 1.0924
 IR Inten    --     31.9076                87.5262                 9.1650

                     22                     23                     24
                      A                      A                      A
 Frequencies --    979.1772               996.2008              1012.9083
 Red. masses --      1.7657                 1.2550                 1.5369
 Frc consts  --      0.9974                 0.7338                 0.9290
 IR Inten    --      8.2641                 6.0696                43.5127

                     25                     26                     27
                      A                      A                      A
 Frequencies --   1021.4260              1081.9010              1113.8081
 Red. masses --      1.4064                 1.5729                 3.8297
 Frc consts  --      0.8645                 1.0847                 2.7992
 IR Inten    --      4.1293                31.2828                55.3264

                     28                     29                     30
                      A                      A                      A
 Frequencies --   1130.4333              1154.5968              1160.8769
 Red. masses --      3.2536                 1.7252                 1.5288
 Frc consts  --      2.4497                 1.3550                 1.2139
 IR Inten    --     39.4022                61.3120                14.1533

                     31                     32                     33
                      A                      A                      A
 Frequencies --   1180.3850              1197.0516              1263.8202
 Red. masses --      1.7964                 1.6880                 2.0116
 Frc consts  --      1.4747                 1.4251                 1.8931
 IR Inten    --     30.0791                16.8635                29.2156

                     34                     35                     36
                      A                      A                      A
 Frequencies --   1276.8612              1322.3038              1358.1569
 Red. masses --      1.6371                 1.4222                 1.3575
 Frc consts  --      1.5725                 1.4651                 1.4753
 IR Inten    --     36.9552                19.0855                18.7804

                     37                     38                     39
                      A                      A                      A
 Frequencies --   1395.6867              1411.7542              1417.2414
 Red. masses --      1.2639                 1.5303                 1.2866
 Frc consts  --      1.4505                 1.7970                 1.5225
 IR Inten    --     20.8107                43.9209                55.3913

                     40                     41                     42
                      A                      A                      A
 Frequencies --   1455.8888              1458.7207              1463.5101
 Red. masses --      1.1803                 1.2375                 1.2526
 Frc consts  --      1.4740                 1.5515                 1.5808
 IR Inten    --      6.6716                10.3221                16.3628

                     43                     44                     45
                      A                      A                      A
 Frequencies --   1479.2261              1486.6890              1492.8790
 Red. masses --      1.1906                 1.0852                 1.0796
 Frc consts  --      1.5350                 1.4132                 1.4176
 IR Inten    --     37.5426                24.1098                 1.6125

                     46                     47                     48
                      A                      A                      A
 Frequencies --   1496.6860              1505.8411              1510.8700
 Red. masses --      1.1243                 1.1034                 1.0850
 Frc consts  --      1.4839                 1.4742                 1.4593
 IR Inten    --      1.6818                23.5395                 6.0010

                     49                     50                     51
                      A                      A                      A
 Frequencies --   1515.8710              1520.3769              1704.8979
 Red. masses --      1.0494                 1.0888                 4.7221
 Frc consts  --      1.4207                 1.4828                 8.0870
 IR Inten    --      9.5358                15.8444               168.9522

                     52                     53                     54
                      A                      A                      A
 Frequencies --   2911.5936              2926.4991              2942.5950
 Red. masses --      1.0711                 1.0617                 1.0679
 Frc consts  --      5.3498                 5.3576                 5.4478
 IR Inten    --     54.5291               130.7513                40.1763

                     55                     56                     57
                      A                      A                      A
 Frequencies --   2950.6347              3028.6232              3031.6374
 Red. masses --      1.0598                 1.0906                 1.0889
 Frc consts  --      5.4365                 5.8937                 5.8966
 IR Inten    --    130.4040                38.4920                31.6454

                     58                     59                     60
                      A                      A                      A
 Frequencies --   3045.5277              3057.1845              3101.3279
 Red. masses --      1.0733                 1.0759                 1.0990
 Frc consts  --      5.8653                 5.9247                 6.2278
 IR Inten    --     40.9473                34.4441                27.6329

                     61                     62                     63
                      A                      A                      A
 Frequencies --   3108.7806              3136.3913              3177.6900
 Red. masses --      1.1003                 1.0855                 1.0625
 Frc consts  --      6.2654                 6.2914                 6.3212
 IR Inten    --     24.3042                20.9122                 0.6012

                     64                     65                     66
                      A                      A                      A
 Frequencies --   3264.1354              3499.9747              3506.6058
 Red. masses --      1.1154                 1.0743                 1.0740
 Frc consts  --      7.0021                 7.7533                 7.7806
 IR Inten    --     10.9735                27.2596                 0.6931

 - Thermochemistry -
 -------------------
 Temperature   298.150 Kelvin.  Pressure   1.00000 Atm.
 Atom     1 has atomic number  6 and mass  12.00000

 Molecular mass:   129.12660 amu.
 Principal axes and moments of inertia in atomic units:
                           1         2         3
     Eigenvalues --  1035.001881566.645802277.39707
           X            0.99978  -0.02103  -0.00059
           Y            0.02103   0.99971   0.01186
           Z            0.00034  -0.01187   0.99993
 This molecule is an asymmetric top.
 Rotational symmetry number  1.
 Warning -- assumption of classical behavior for rotation
           may cause significant error
 Rotational temperatures (Kelvin)      0.08368     0.05529     0.03803
 Rotational constants (GHZ):           1.74371     1.15198     0.79246
 Zero-point vibrational energy     569890.1 (Joules/Mol)
                                  136.20701 (Kcal/Mol)
 Warning -- explicit consideration of  15 degrees of freedom as
           vibrations may cause significant error
 Vibrational temperatures:     87.27   103.09   143.36   168.68   221.15
          (Kelvin)            273.05   335.16   344.00   381.85   422.69
                              444.08   597.22   618.15   744.58   889.27
                             1018.23  1155.82  1174.23  1228.29  1248.79
                             1383.00  1408.82  1433.31  1457.35  1469.60
                             1556.61  1602.52  1626.44  1661.21  1670.24
                             1698.31  1722.29  1818.36  1837.12  1902.50
                             1954.08  2008.08  2031.20  2039.09  2094.70
                             2098.77  2105.66  2128.28  2139.01  2147.92
                             2153.40  2166.57  2173.80  2181.00  2187.48
                             2452.97  4189.13  4210.58  4233.74  4245.31
                             4357.51  4361.85  4381.84  4398.61  4462.12
                             4472.84  4512.57  4571.99  4696.36  5035.68
                             5045.22

 Zero-point correction=                           0.217060 (Hartree/Particle)
 Thermal correction to Energy=                    0.228247
 Thermal correction to Enthalpy=                  0.229192
 Thermal correction to Gibbs Free Energy=         0.180127
 Sum of electronic and zero-point Energies=           -401.691136
 Sum of electronic and thermal Energies=              -401.679948
 Sum of electronic and thermal Enthalpies=            -401.679004
 Sum of electronic and thermal Free Energies=         -401.728069

                     E (Thermal)             CV                S
                      KCal/Mol        Cal/Mol-Kelvin    Cal/Mol-Kelvin
 Total                  143.227             39.857            103.265
 Electronic               0.000              0.000              0.000
 Translational            0.889              2.981             40.480
 Rotational               0.889              2.981             29.692
 Vibrational            141.450             33.895             33.093
 Vibration     1          0.597              1.973              4.436
 Vibration     2          0.598              1.968              4.107
 Vibration     3          0.604              1.949              3.461
 Vibration     4          0.608              1.935              3.145
 Vibration     5          0.619              1.899              2.626
 Vibration     6          0.633              1.854              2.230
 Vibration     7          0.654              1.791              1.856
 Vibration     8          0.657              1.781              1.810
 Vibration     9          0.671              1.736              1.626
 Vibration    10          0.689              1.685              1.452
 Vibration    11          0.698              1.657              1.370
 Vibration    12          0.778              1.437              0.909
 Vibration    13          0.791              1.406              0.860
 Vibration    14          0.873              1.211              0.616
 Vibration    15          0.978              0.994              0.420

 Optimization completed.
    -- Stationary point found.
 Normal termination of Gaussian 16 at Tue Jun  1 23:09:29 2021.
