 Gaussian 16, Revision A.03,
 Gaussian 16:  ES64L-G16RevA.03 25-Dec-2016

 -----------------------------
 # opt freq b3lyp/6-31g(2df,p)
 -----------------------------

 -------------------
 Title Card Required
 -------------------
 Symbolic Z-matrix:
 Charge =  0 Multiplicity = 1

 SCF Done:  E(RB3LYP) =  -454.737753911     A.U. after   15 cycles
 SCF Done:  E(RB3LYP) =  -454.767661961     A.U. after   13 cycles
 SCF Done:  E(RB3LYP) =  -454.776913144     A.U. after   13 cycles
 SCF Done:  E(RB3LYP) =  -454.788221544     A.U. after   14 cycles
 SCF Done:  E(RB3LYP) =  -454.792506415     A.U. after   13 cycles
 SCF Done:  E(RB3LYP) =  -454.794306120     A.U. after   12 cycles
 SCF Done:  E(RB3LYP) =  -454.794580540     A.U. after   12 cycles
 SCF Done:  E(RB3LYP) =  -454.794898154     A.U. after   10 cycles
 SCF Done:  E(RB3LYP) =  -454.795367743     A.U. after   12 cycles
 SCF Done:  E(RB3LYP) =  -454.795178970     A.U. after   12 cycles
 SCF Done:  E(RB3LYP) =  -454.795736722     A.U. after   10 cycles
 SCF Done:  E(RB3LYP) =  -454.795928262     A.U. after   11 cycles
 SCF Done:  E(RB3LYP) =  -454.795987916     A.U. after   10 cycles
 SCF Done:  E(RB3LYP) =  -454.795991781     A.U. after    8 cycles
 SCF Done:  E(RB3LYP) =  -454.795992662     A.U. after    8 cycles
 Optimization completed.
    -- Stationary point found.
 Normal termination of Gaussian 16 at Tue Jun  1 06:07:28 2021.

 ----------------------------------------------------------------------
 #N Geom=AllCheck Guess=TCheck SCRF=Check GenChk RB3LYP/6-31G(2df,p) Fr
 eq
 ----------------------------------------------------------------------

 Structure from the checkpoint file:  "CdCNpNpNCCCCtN.chk"
 -------------------
 Title Card Required
 -------------------
 Charge =  0 Multiplicity = 1

                         Standard orientation:
 ---------------------------------------------------------------------
 Center     Atomic      Atomic             Coordinates (Angstroms)
 Number     Number       Type             X           Y           Z
 ---------------------------------------------------------------------
      1          6           0        3.841944   -1.105400   -0.459479
      2          6           0        2.779106   -0.860253    0.314065
      3          7           0        2.137346    0.362228    0.482653
      4          7           0        2.405031    1.403135   -0.436686
      5          7           0        0.796880    0.262356    0.903588
      6          6           0       -0.174456    0.141559   -0.190541
      7          6           0       -1.585594    0.042624    0.385949
      8          6           0       -2.641878   -0.106980   -0.725901
      9          6           0       -4.002833   -0.185472   -0.199866
     10          7           0       -5.072946   -0.244522    0.231986
     11          1           0        4.284723   -2.092224   -0.464322
     12          1           0        4.321064   -0.345476   -1.064129
     13          1           0        2.334697   -1.632327    0.932761
     14          1           0        2.556230    1.009481   -1.368946
     15          1           0        3.276000    1.847322   -0.158644
     16          1           0        0.598863    1.101146    1.441409
     17          1           0        0.069336   -0.772813   -0.746150
     18          1           0       -0.110908    0.984018   -0.896777
     19          1           0       -1.813429    0.939724    0.974008
     20          1           0       -1.644844   -0.807890    1.071487
     21          1           0       -2.446312   -1.009621   -1.316707
     22          1           0       -2.587329    0.739808   -1.420140
 ---------------------------------------------------------------------

 SCF Done:  E(RB3LYP) =  -454.795992662     A.U. after    1 cycles

 The electronic state is 1-A.
 Alpha  occ. eigenvalues --  -14.39386 -14.35674 -14.35610 -14.32625 -10.24013
 Alpha  occ. eigenvalues --  -10.22133 -10.21990 -10.21431 -10.21179 -10.16452
 Alpha  occ. eigenvalues --   -1.02973  -0.90145  -0.89378  -0.82308  -0.79627
 Alpha  occ. eigenvalues --   -0.73518  -0.68203  -0.62435  -0.57881  -0.52936
 Alpha  occ. eigenvalues --   -0.52779  -0.50821  -0.50306  -0.49182  -0.46386
 Alpha  occ. eigenvalues --   -0.43314  -0.42669  -0.40949  -0.38070  -0.37397
 Alpha  occ. eigenvalues --   -0.36659  -0.35405  -0.32610  -0.32283  -0.31853
 Alpha  occ. eigenvalues --   -0.28392  -0.25817  -0.21027
 Alpha virt. eigenvalues --    0.02923   0.03688   0.04033   0.06986   0.07890
 Alpha virt. eigenvalues --    0.09405   0.11542   0.12332   0.12910   0.14011
 Alpha virt. eigenvalues --    0.14610   0.16197   0.16528   0.17662   0.18432

 Mulliken charges:
               1
     1  C   -0.413470
     2  C    0.115586
     3  N   -0.065646
     4  N   -0.464608
     5  N   -0.272000
     6  C   -0.130291
     7  C   -0.191756
     8  C   -0.341231
     9  C    0.257735
    10  N   -0.302147
    11  H    0.110941
    12  H    0.085066
    13  H    0.114194
    14  H    0.231347
    15  H    0.254314
    16  H    0.231037
    17  H    0.112227
    18  H    0.104194
    19  H    0.120419
    20  H    0.134631
    21  H    0.154905
    22  H    0.154553
 Sum of Mulliken charges =  -0.00000

 Dipole moment (field-independent basis, Debye):
    X=              3.7268    Y=              0.9156    Z=             -1.7955  Tot=              4.2369
 Quadrupole moment (field-independent basis, Debye-Ang):
   XX=            -87.6185   YY=            -58.3269   ZZ=            -59.2257
   XY=              1.0526   XZ=              2.2700   YZ=              0.7297

  Exact polarizability: 128.330  -6.357  78.442 -14.397  -0.259  72.739
 Approx polarizability: 162.404  -8.714 118.049 -29.213   1.807 117.691

                      1                      2                      3
                      A                      A                      A
 Frequencies --     35.5362                57.2958                81.6785
 Red. masses --      4.7042                 3.1463                 3.4599
 Frc consts  --      0.0035                 0.0061                 0.0136
 IR Inten    --      3.3465                 3.3578                 1.6614

                      4                      5                      6
                      A                      A                      A
 Frequencies --    104.4293               125.5266               173.6869
 Red. masses --      2.9309                 2.9718                 3.2986
 Frc consts  --      0.0188                 0.0276                 0.0586
 IR Inten    --      4.1431                 4.6022                 0.4474

                      7                      8                      9
                      A                      A                      A
 Frequencies --    227.4749               286.8145               299.3629
 Red. masses --      2.2153                 2.9275                 3.0440
 Frc consts  --      0.0675                 0.1419                 0.1607
 IR Inten    --      0.3529                 7.1137                 8.1939

                     10                     11                     12
                      A                      A                      A
 Frequencies --    335.8224               370.7429               398.0718
 Red. masses --      2.5288                 1.6267                 3.4606
 Frc consts  --      0.1680                 0.1317                 0.3231
 IR Inten    --      5.3756                24.7230                 0.3928

                     13                     14                     15
                      A                      A                      A
 Frequencies --    441.9582               511.7175               557.8226
 Red. masses --      2.2562                 3.8248                 4.4855
 Frc consts  --      0.2597                 0.5901                 0.8223
 IR Inten    --     25.8309                22.1560                 4.0916

                     16                     17                     18
                      A                      A                      A
 Frequencies --    627.6993               712.1394               754.8102
 Red. masses --      2.5942                 1.5963                 1.1195
 Frc consts  --      0.6022                 0.4770                 0.3758
 IR Inten    --      2.7628                 6.7757                 2.7368

                     19                     20                     21
                      A                      A                      A
 Frequencies --    800.8657               815.0605               826.4404
 Red. masses --      2.1534                 1.4516                 1.9858
 Frc consts  --      0.8137                 0.5682                 0.7991
 IR Inten    --     42.2110                37.5853                67.0181

                     22                     23                     24
                      A                      A                      A
 Frequencies --    876.7931               925.3236               940.8978
 Red. masses --      1.4006                 1.7947                 4.5234
 Frc consts  --      0.6344                 0.9054                 2.3594
 IR Inten    --     20.9658                34.8136                 4.9145

                     25                     26                     27
                      A                      A                      A
 Frequencies --   1020.2866              1027.6042              1048.4922
 Red. masses --      1.1500                 3.2751                 1.5135
 Frc consts  --      0.7053                 2.0376                 0.9803
 IR Inten    --     14.7468                 3.5626                 7.6787

                     28                     29                     30
                      A                      A                      A
 Frequencies --   1059.3494              1093.6395              1126.9281
 Red. masses --      2.5417                 2.9969                 1.9508
 Frc consts  --      1.6805                 2.1119                 1.4597
 IR Inten    --      1.7708                 4.0160                 3.9319

                     31                     32                     33
                      A                      A                      A
 Frequencies --   1181.9395              1242.8115              1269.8263
 Red. masses --      1.5806                 2.3426                 1.5220
 Frc consts  --      1.3009                 2.1319                 1.4459
 IR Inten    --      3.7939                30.1956                15.0868

                     34                     35                     36
                      A                      A                      A
 Frequencies --   1284.2612              1307.9705              1313.3570
 Red. masses --      1.5432                 1.4278                 1.2123
 Frc consts  --      1.4996                 1.4391                 1.2321
 IR Inten    --     10.7828                31.9780                 5.8269

                     37                     38                     39
                      A                      A                      A
 Frequencies --   1319.1358              1327.5996              1361.4575
 Red. masses --      1.0725                 1.3124                 1.3949
 Frc consts  --      1.0995                 1.3629                 1.5234
 IR Inten    --      0.5887                10.1273                 4.0839

                     40                     41                     42
                      A                      A                      A
 Frequencies --   1405.5038              1449.2665              1469.7397
 Red. masses --      1.5104                 1.2261                 1.0823
 Frc consts  --      1.7579                 1.5173                 1.3775
 IR Inten    --      0.5557                 4.8087                 2.3019

                     43                     44                     45
                      A                      A                      A
 Frequencies --   1497.1598              1521.8386              1531.0743
 Red. masses --      1.0850                 1.0942                 1.1767
 Frc consts  --      1.4329                 1.4931                 1.6252
 IR Inten    --      1.8970                 1.4616                11.0431

                     46                     47                     48
                      A                      A                      A
 Frequencies --   1678.5564              1694.9797              2364.1752
 Red. masses --      1.0811                 4.8842                12.6102
 Frc consts  --      1.7946                 8.2675                41.5271
 IR Inten    --     14.6283               130.3670                12.2773

                     49                     50                     51
                      A                      A                      A
 Frequencies --   2984.4495              3034.8900              3041.1261
 Red. masses --      1.0646                 1.0639                 1.0749
 Frc consts  --      5.5868                 5.7736                 5.8573
 IR Inten    --     31.5814                 0.1684                 7.9802

                     52                     53                     54
                      A                      A                      A
 Frequencies --   3050.3585              3072.3578              3101.1902
 Red. masses --      1.0771                 1.0996                 1.1025
 Frc consts  --      5.9048                 6.1152                 6.2474
 IR Inten    --     30.1738                 0.6919                23.0785

                     55                     56                     57
                      A                      A                      A
 Frequencies --   3173.0891              3198.8145              3259.0193
 Red. masses --      1.0588                 1.0927                 1.1138
 Frc consts  --      6.2810                 6.5879                 6.9702
 IR Inten    --      3.3552                 2.3185                 7.4882

                     58                     59                     60
                      A                      A                      A
 Frequencies --   3395.3140              3503.9968              3524.5708
 Red. masses --      1.0549                 1.0744                 1.0859
 Frc consts  --      7.1650                 7.7720                 7.9479
 IR Inten    --      8.2021                 1.4684                 1.4794

 - Thermochemistry -
 -------------------
 Temperature   298.150 Kelvin.  Pressure   1.00000 Atm.
 Atom     1 has atomic number  6 and mass  12.00000

 Molecular mass:   140.10620 amu.
 Principal axes and moments of inertia in atomic units:
                           1         2         3
     Eigenvalues --   419.387234334.497514437.57743
           X            0.99998  -0.00454  -0.00379
           Y            0.00451   0.99996  -0.00783
           Z            0.00383   0.00782   0.99996
 This molecule is an asymmetric top.
 Rotational symmetry number  1.
 Rotational temperatures (Kelvin)      0.20652     0.01998     0.01952
 Rotational constants (GHZ):           4.30328     0.41637     0.40670
 Zero-point vibrational energy     491809.3 (Joules/Mol)
                                  117.54525 (Kcal/Mol)
 Warning -- explicit consideration of  15 degrees of freedom as
           vibrations may cause significant error
 Vibrational temperatures:     51.13    82.44   117.52   150.25   180.60
          (Kelvin)            249.90   327.29   412.66   430.72   483.17
                              533.42   572.74   635.88   736.25   802.58
                              903.12  1024.61  1086.00  1152.27  1172.69
                             1189.06  1261.51  1331.33  1353.74  1467.96
                             1478.49  1508.55  1524.17  1573.50  1621.40
                             1700.55  1788.13  1827.00  1847.77  1881.88
                             1889.63  1897.94  1910.12  1958.83  2022.21
                             2085.17  2114.63  2154.08  2189.59  2202.87
                             2415.07  2438.70  3401.52  4293.96  4366.53
                             4375.50  4388.79  4420.44  4461.92  4565.37
                             4602.38  4689.00  4885.10  5041.47  5071.07

 Zero-point correction=                           0.187320 (Hartree/Particle)
 Thermal correction to Energy=                    0.198743
 Thermal correction to Enthalpy=                  0.199687
 Thermal correction to Gibbs Free Energy=         0.149013
 Sum of electronic and zero-point Energies=           -454.608672
 Sum of electronic and thermal Energies=              -454.597250
 Sum of electronic and thermal Enthalpies=            -454.596306
 Sum of electronic and thermal Free Energies=         -454.646980

                     E (Thermal)             CV                S
                      KCal/Mol        Cal/Mol-Kelvin    Cal/Mol-Kelvin
 Total                  124.713             40.829            106.653
 Electronic               0.000              0.000              0.000
 Translational            0.889              2.981             40.723
 Rotational               0.889              2.981             30.468
 Vibrational            122.935             34.867             35.461
 Vibration     1          0.594              1.982              5.494
 Vibration     2          0.596              1.975              4.548
 Vibration     3          0.600              1.962              3.850
 Vibration     4          0.605              1.946              3.370
 Vibration     5          0.610              1.928              3.013
 Vibration     6          0.627              1.875              2.395
 Vibration     7          0.651              1.799              1.899
 Vibration     8          0.684              1.698              1.493
 Vibration     9          0.692              1.675              1.420
 Vibration    10          0.717              1.604              1.232
 Vibration    11          0.743              1.532              1.077
 Vibration    12          0.764              1.474              0.970
 Vibration    13          0.802              1.379              0.820
 Vibration    14          0.867              1.224              0.629
 Vibration    15          0.913              1.123              0.528

                           ! Non-Optimized Parameters !
 Normal termination of Gaussian 16 at Tue Jun  1 06:38:56 2021.
