 Gaussian 16, Revision A.03,
 Gaussian 16:  ES64L-G16RevA.03 25-Dec-2016

 -----------------------------
 # opt freq b3lyp/6-31g(2df,p)
 -----------------------------

 -------------------
 Title Card Required
 -------------------
 Symbolic Z-matrix:
 Charge =  0 Multiplicity = 1

 SCF Done:  E(RB3LYP) =  -362.497777054     A.U. after   13 cycles
 SCF Done:  E(RB3LYP) =  -362.507847936     A.U. after   12 cycles
 SCF Done:  E(RB3LYP) =  -362.518757705     A.U. after   12 cycles
 SCF Done:  E(RB3LYP) =  -362.533124857     A.U. after   12 cycles
 SCF Done:  E(RB3LYP) =  -362.542207282     A.U. after   13 cycles
 SCF Done:  E(RB3LYP) =  -362.545011634     A.U. after   11 cycles
 SCF Done:  E(RB3LYP) =  -362.547167622     A.U. after   11 cycles
 SCF Done:  E(RB3LYP) =  -362.548697769     A.U. after   12 cycles
 SCF Done:  E(RB3LYP) =  -362.549235584     A.U. after   11 cycles
 SCF Done:  E(RB3LYP) =  -362.549416246     A.U. after   10 cycles
 SCF Done:  E(RB3LYP) =  -362.549454470     A.U. after   10 cycles
 SCF Done:  E(RB3LYP) =  -362.549463407     A.U. after    9 cycles
 SCF Done:  E(RB3LYP) =  -362.549465036     A.U. after    8 cycles
 SCF Done:  E(RB3LYP) =  -362.549465288     A.U. after    7 cycles
 SCF Done:  E(RB3LYP) =  -362.549465358     A.U. after    7 cycles
 Optimization completed.
    -- Stationary point found.
 Normal termination of Gaussian 16 at Tue Jun  1 07:49:27 2021.

 ----------------------------------------------------------------------
 #N Geom=AllCheck Guess=TCheck SCRF=Check GenChk RB3LYP/6-31G(2df,p) Fr
 eq
 ----------------------------------------------------------------------

 Structure from the checkpoint file:  "CdCNpNCpNCC.chk"
 -------------------
 Title Card Required
 -------------------
 Charge =  0 Multiplicity = 1

                         Standard orientation:
 ---------------------------------------------------------------------
 Center     Atomic      Atomic             Coordinates (Angstroms)
 Number     Number       Type             X           Y           Z
 ---------------------------------------------------------------------
      1          6           0        2.618889   -1.224114   -0.001388
      2          6           0        1.303621   -1.262327   -0.238940
      3          7           0        0.391775   -0.215161   -0.111036
      4          7           0        0.802836    0.933052    0.604423
      5          6           0        1.401927    1.949804   -0.261505
      6          7           0       -0.917043   -0.658300    0.192845
      7          6           0       -1.931036    0.255958   -0.335481
      8          6           0       -3.322577   -0.217177    0.072571
      9          1           0        3.218446   -2.106402   -0.182028
     10          1           0        3.141373   -0.336957    0.333654
     11          1           0        0.819819   -2.166135   -0.591938
     12          1           0        1.466132    0.647120    1.326076
     13          1           0        0.636927    2.341542   -0.936577
     14          1           0        2.243250    1.585163   -0.866554
     15          1           0        1.753907    2.770043    0.372079
     16          1           0       -1.013649   -0.703485    1.209606
     17          1           0       -1.829862    0.255429   -1.426207
     18          1           0       -1.766169    1.287838    0.010343
     19          1           0       -3.507482   -1.236568   -0.278392
     20          1           0       -4.088828    0.440401   -0.347580
     21          1           0       -3.441777   -0.207982    1.162347
 ---------------------------------------------------------------------

 SCF Done:  E(RB3LYP) =  -362.549465358     A.U. after    1 cycles

 The electronic state is 1-A.
 Alpha  occ. eigenvalues --  -14.38087 -14.34565 -14.34007 -10.20517 -10.20170
 Alpha  occ. eigenvalues --  -10.19997 -10.17511 -10.15791  -1.01830  -0.88794
 Alpha  occ. eigenvalues --   -0.80635  -0.74208  -0.69638  -0.65643  -0.60545
 Alpha  occ. eigenvalues --   -0.56958  -0.51762  -0.50285  -0.47742  -0.44674
 Alpha  occ. eigenvalues --   -0.43106  -0.42018  -0.41387  -0.39004  -0.37228
 Alpha  occ. eigenvalues --   -0.36442  -0.36050  -0.34812  -0.30803  -0.25459
 Alpha  occ. eigenvalues --   -0.23549  -0.20353
 Alpha virt. eigenvalues --    0.03809   0.09095   0.09890   0.11777   0.12905
 Alpha virt. eigenvalues --    0.13936   0.14706   0.14725   0.16641   0.16988
 Alpha virt. eigenvalues --    0.17639   0.18815   0.19808   0.20369   0.21822

 Mulliken charges:
               1
     1  C   -0.417502
     2  C    0.113325
     3  N   -0.070727
     4  N   -0.257635
     5  C   -0.294722
     6  N   -0.253170
     7  C   -0.083639
     8  C   -0.395233
     9  H    0.108526
    10  H    0.092555
    11  H    0.112610
    12  H    0.212676
    13  H    0.129657
    14  H    0.117572
    15  H    0.117087
    16  H    0.208919
    17  H    0.105898
    18  H    0.095421
    19  H    0.126877
    20  H    0.118074
    21  H    0.113431
 Sum of Mulliken charges =  -0.00000

 Dipole moment (field-independent basis, Debye):
    X=             -0.1534    Y=              0.8078    Z=              0.6666  Tot=              1.0585
 Quadrupole moment (field-independent basis, Debye-Ang):
   XX=            -48.6081   YY=            -50.1379   ZZ=            -50.2483
   XY=              1.1361   XZ=              1.0408   YZ=             -0.3316

  Exact polarizability: 104.868  -3.493  77.625   1.776   1.732  59.437
 Approx polarizability: 137.029  -4.087 106.255   5.529   3.011  91.646

                      1                      2                      3
                      A                      A                      A
 Frequencies --     78.9271                93.1913               113.5212
 Red. masses --      2.8986                 2.2097                 2.1498
 Frc consts  --      0.0106                 0.0113                 0.0163
 IR Inten    --      0.8232                 1.8254                 0.2040

                      4                      5                      6
                      A                      A                      A
 Frequencies --    159.3272               181.0953               231.0070
 Red. masses --      2.7029                 1.0804                 1.5294
 Frc consts  --      0.0404                 0.0209                 0.0481
 IR Inten    --      0.5131                 0.6735                 0.5300

                      7                      8                      9
                      A                      A                      A
 Frequencies --    252.1913               283.0590               326.6590
 Red. masses --      1.3648                 2.7357                 2.7535
 Frc consts  --      0.0511                 0.1291                 0.1731
 IR Inten    --      2.7224                 5.7372                 6.2309

                     10                     11                     12
                      A                      A                      A
 Frequencies --    372.7912               455.2741               478.1799
 Red. masses --      3.1564                 2.7733                 3.0067
 Frc consts  --      0.2585                 0.3387                 0.4051
 IR Inten    --      6.1840                 7.4384                13.7764

                     13                     14                     15
                      A                      A                      A
 Frequencies --    627.4945               718.1389               739.6328
 Red. masses --      2.5185                 1.6419                 2.7291
 Frc consts  --      0.5843                 0.4989                 0.8796
 IR Inten    --      5.9422                10.4369                28.9627

                     16                     17                     18
                      A                      A                      A
 Frequencies --    816.4484               821.1774               838.4863
 Red. masses --      1.1702                 1.3269                 1.6146
 Frc consts  --      0.4596                 0.5272                 0.6688
 IR Inten    --     29.3742                48.4878                43.5165

                     19                     20                     21
                      A                      A                      A
 Frequencies --    905.7404               935.5128               991.6828
 Red. masses --      1.6538                 1.4693                 1.5544
 Frc consts  --      0.7994                 0.7576                 0.9006
 IR Inten    --     49.9141                15.6984                 1.2371

                     22                     23                     24
                      A                      A                      A
 Frequencies --   1021.7063              1064.7137              1090.7192
 Red. masses --      1.1487                 2.5705                 3.0536
 Frc consts  --      0.7065                 1.7169                 2.1403
 IR Inten    --     13.5530                 5.2167                17.4638

                     25                     26                     27
                      A                      A                      A
 Frequencies --   1123.9900              1151.5795              1178.2371
 Red. masses --      1.9545                 1.7719                 2.0952
 Frc consts  --      1.4549                 1.3844                 1.7137
 IR Inten    --      5.8023                10.5885                17.2176

                     28                     29                     30
                      A                      A                      A
 Frequencies --   1209.1979              1230.5947              1269.6550
 Red. masses --      1.9750                 2.0236                 2.5193
 Frc consts  --      1.7014                 1.8055                 2.3928
 IR Inten    --      6.0873                12.5439                28.6540

                     31                     32                     33
                      A                      A                      A
 Frequencies --   1296.6747              1324.3921              1375.5055
 Red. masses --      1.3571                 1.2578                 1.3196
 Frc consts  --      1.3444                 1.2998                 1.4710
 IR Inten    --      5.6625                16.6812                11.5290

                     34                     35                     36
                      A                      A                      A
 Frequencies --   1411.2679              1445.3188              1451.8466
 Red. masses --      1.2894                 1.2074                 1.1817
 Frc consts  --      1.5130                 1.4860                 1.4676
 IR Inten    --      5.8309                 4.7497                 2.8432

                     37                     38                     39
                      A                      A                      A
 Frequencies --   1482.3166              1486.9344              1496.8865
 Red. masses --      1.0590                 1.0665                 1.1093
 Frc consts  --      1.3710                 1.3893                 1.4645
 IR Inten    --      4.9378                 5.3869                 4.3642

                     40                     41                     42
                      A                      A                      A
 Frequencies --   1500.7631              1518.3863              1525.6824
 Red. masses --      1.0511                 1.1366                 1.0840
 Frc consts  --      1.3949                 1.5440                 1.4867
 IR Inten    --      1.7088                 0.7099                 1.9930

                     43                     44                     45
                      A                      A                      A
 Frequencies --   1530.3846              1695.1572              2988.6886
 Red. masses --      1.1093                 4.5568                 1.0683
 Frc consts  --      1.5307                 7.7148                 5.6224
 IR Inten    --      5.4135               115.6912                38.0063

                     46                     47                     48
                      A                      A                      A
 Frequencies --   3007.4343              3033.6378              3062.4524
 Red. masses --      1.0434                 1.0383                 1.0910
 Frc consts  --      5.5603                 5.6298                 6.0288
 IR Inten    --     47.1838                21.7063                13.7511

                     49                     50                     51
                      A                      A                      A
 Frequencies --   3082.2477              3101.2590              3118.1442
 Red. masses --      1.0910                 1.0987                 1.1025
 Frc consts  --      6.1070                 6.2258                 6.3157
 IR Inten    --     30.6065                39.9453                18.0314

                     52                     53                     54
                      A                      A                      A
 Frequencies --   3119.6223              3172.9036              3201.2125
 Red. masses --      1.1023                 1.0589                 1.0927
 Frc consts  --      6.3204                 6.2807                 6.5974
 IR Inten    --     25.3223                 3.4857                 3.0415

                     55                     56                     57
                      A                      A                      A
 Frequencies --   3256.1684              3401.2041              3418.0266
 Red. masses --      1.1138                 1.0732                 1.0735
 Frc consts  --      6.9578                 7.3145                 7.3894
 IR Inten    --     10.8150                12.7831                 8.6192

 - Thermochemistry -
 -------------------
 Temperature   298.150 Kelvin.  Pressure   1.00000 Atm.
 Atom     1 has atomic number  6 and mass  12.00000

 Molecular mass:   115.11095 amu.
 Principal axes and moments of inertia in atomic units:
                           1         2         3
     Eigenvalues --   536.789631517.076581926.38532
           X            0.99996   0.00869  -0.00058
           Y           -0.00870   0.99989  -0.01199
           Z            0.00048   0.01199   0.99993
 This molecule is an asymmetric top.
 Rotational symmetry number  1.
 Warning -- assumption of classical behavior for rotation
           may cause significant error
 Rotational temperatures (Kelvin)      0.16136     0.05709     0.04496
 Rotational constants (GHZ):           3.36210     1.18962     0.93685
 Zero-point vibrational energy     492050.7 (Joules/Mol)
                                  117.60293 (Kcal/Mol)
 Warning -- explicit consideration of  12 degrees of freedom as
           vibrations may cause significant error
 Vibrational temperatures:    113.56   134.08   163.33   229.24   260.56
          (Kelvin)            332.37   362.85   407.26   469.99   536.36
                              655.04   687.99   902.82  1033.24  1064.17
                             1174.69  1181.49  1206.39  1303.16  1345.99
                             1426.81  1470.01  1531.89  1569.30  1617.17
                             1656.87  1695.22  1739.77  1770.55  1826.75
                             1865.63  1905.50  1979.05  2030.50  2079.49
                             2088.88  2132.72  2139.37  2153.69  2159.26
                             2184.62  2195.12  2201.88  2438.95  4300.06
                             4327.03  4364.73  4406.19  4434.67  4462.02
                             4486.31  4488.44  4565.10  4605.83  4684.90
                             4893.57  4917.78

 Zero-point correction=                           0.187412 (Hartree/Particle)
 Thermal correction to Energy=                    0.197338
 Thermal correction to Enthalpy=                  0.198283
 Thermal correction to Gibbs Free Energy=         0.152638
 Sum of electronic and zero-point Energies=           -362.362053
 Sum of electronic and thermal Energies=              -362.352127
 Sum of electronic and thermal Enthalpies=            -362.351183
 Sum of electronic and thermal Free Energies=         -362.396828

                     E (Thermal)             CV                S
                      KCal/Mol        Cal/Mol-Kelvin    Cal/Mol-Kelvin
 Total                  123.832             35.772             96.068
 Electronic               0.000              0.000              0.000
 Translational            0.889              2.981             40.137
 Rotational               0.889              2.981             28.841
 Vibrational            122.054             29.811             27.090
 Vibration     1          0.600              1.963              3.917
 Vibration     2          0.602              1.954              3.592
 Vibration     3          0.607              1.938              3.208
 Vibration     4          0.621              1.892              2.558
 Vibration     5          0.630              1.865              2.317
 Vibration     6          0.653              1.794              1.871
 Vibration     7          0.664              1.759              1.715
 Vibration     8          0.682              1.705              1.515
 Vibration     9          0.710              1.622              1.277
 Vibration    10          0.744              1.528              1.068
 Vibration    11          0.814              1.349              0.780
 Vibration    12          0.835              1.298              0.715

 Optimization completed.
    -- Stationary point found.
 Normal termination of Gaussian 16 at Tue Jun  1 08:13:11 2021.
