 Gaussian 16, Revision A.03,
 Gaussian 16:  ES64L-G16RevA.03 25-Dec-2016

 -----------------------------
 # opt freq b3lyp/6-31g(2df,p)
 -----------------------------

 -------------------
 Title Card Required
 -------------------
 Symbolic Z-matrix:
 Charge =  0 Multiplicity = 1

 SCF Done:  E(RB3LYP) =  -385.860630281     A.U. after   13 cycles
 SCF Done:  E(RB3LYP) =  -385.868816003     A.U. after   11 cycles
 SCF Done:  E(RB3LYP) =  -385.869904732     A.U. after   10 cycles
 SCF Done:  E(RB3LYP) =  -385.871674538     A.U. after   11 cycles
 SCF Done:  E(RB3LYP) =  -385.873474794     A.U. after   11 cycles
 SCF Done:  E(RB3LYP) =  -385.875860945     A.U. after   11 cycles
 SCF Done:  E(RB3LYP) =  -385.877198221     A.U. after   10 cycles
 SCF Done:  E(RB3LYP) =  -385.877626916     A.U. after   11 cycles
 SCF Done:  E(RB3LYP) =  -385.877983402     A.U. after   11 cycles
 SCF Done:  E(RB3LYP) =  -385.878305437     A.U. after   10 cycles
 SCF Done:  E(RB3LYP) =  -385.880746826     A.U. after   11 cycles
 SCF Done:  E(RB3LYP) =  -385.881299353     A.U. after   11 cycles
 SCF Done:  E(RB3LYP) =  -385.881319773     A.U. after    9 cycles
 SCF Done:  E(RB3LYP) =  -385.881326300     A.U. after    9 cycles
 SCF Done:  E(RB3LYP) =  -385.881327696     A.U. after    8 cycles
 SCF Done:  E(RB3LYP) =  -385.881328573     A.U. after    8 cycles
 SCF Done:  E(RB3LYP) =  -385.881329043     A.U. after    8 cycles
 SCF Done:  E(RB3LYP) =  -385.881329128     A.U. after    7 cycles
 SCF Done:  E(RB3LYP) =  -385.881329129     A.U. after    6 cycles
 Optimization completed.
    -- Stationary point found.
 Normal termination of Gaussian 16 at Tue Jun  1 17:40:08 2021.

 ----------------------------------------------------------------------
 #N Geom=AllCheck Guess=TCheck SCRF=Check GenChk RB3LYP/6-31G(2df,p) Fr
 eq
 ----------------------------------------------------------------------

 Structure from the checkpoint file:  "CdCNpCpCNCCC.chk"
 -------------------
 Title Card Required
 -------------------
 Charge =  0 Multiplicity = 1

                         Standard orientation:
 ---------------------------------------------------------------------
 Center     Atomic      Atomic             Coordinates (Angstroms)
 Number     Number       Type             X           Y           Z
 ---------------------------------------------------------------------
      1          6           0       -3.572478   -1.074668    0.525040
      2          6           0       -2.542023   -0.809202   -0.288893
      3          7           0       -1.820994    0.366275   -0.385625
      4          6           0       -2.121038    1.440429    0.539613
      5          6           0       -0.489622    0.315892   -0.935454
      6          7           0        0.527508    0.051351    0.079533
      7          6           0        1.889395    0.050742   -0.443327
      8          6           0        2.908435   -0.243180    0.657552
      9          6           0        4.353375   -0.212156    0.153982
     10          1           0       -4.087895   -2.022272    0.442727
     11          1           0       -3.938726   -0.374977    1.264952
     12          1           0       -2.213817   -1.561837   -1.003235
     13          1           0       -3.183049    1.699823    0.470489
     14          1           0       -1.527927    2.318647    0.275609
     15          1           0       -1.898571    1.177999    1.583738
     16          1           0       -0.247820    1.285612   -1.390846
     17          1           0       -0.495205   -0.430769   -1.749786
     18          1           0        0.326987   -0.845485    0.515144
     19          1           0        2.086666    1.045496   -0.867100
     20          1           0        2.030773   -0.668222   -1.274632
     21          1           0        2.692602   -1.229322    1.091312
     22          1           0        2.769303    0.484709    1.464849
     23          1           0        4.515574   -0.950246   -0.639337
     24          1           0        5.058887   -0.431748    0.960795
     25          1           0        4.610358    0.772070   -0.253114
 ---------------------------------------------------------------------

 SCF Done:  E(RB3LYP) =  -385.881329129     A.U. after    1 cycles

 The electronic state is 1-A.
 Alpha  occ. eigenvalues --  -14.33739 -14.31123 -10.23564 -10.20459 -10.20230
 Alpha  occ. eigenvalues --  -10.20198 -10.18103 -10.17549 -10.14572  -0.95005
 Alpha  occ. eigenvalues --   -0.88698  -0.77435  -0.73799  -0.70772  -0.66197
 Alpha  occ. eigenvalues --   -0.62718  -0.58967  -0.54472  -0.50179  -0.48813
 Alpha  occ. eigenvalues --   -0.46825  -0.46137  -0.43445  -0.41863  -0.41405
 Alpha  occ. eigenvalues --   -0.39783  -0.38305  -0.37676  -0.37271  -0.35398
 Alpha  occ. eigenvalues --   -0.35208  -0.33577  -0.33082  -0.30027  -0.22611
 Alpha  occ. eigenvalues --   -0.18911
 Alpha virt. eigenvalues --    0.05229   0.08409   0.09760   0.10733   0.11907
 Alpha virt. eigenvalues --    0.12498   0.14008   0.14561   0.15782   0.16071
 Alpha virt. eigenvalues --    0.17501   0.17811   0.18360   0.18846   0.19425

 Mulliken charges:
               1
     1  C   -0.413825
     2  C    0.075178
     3  N   -0.024318
     4  C   -0.323909
     5  C   -0.134421
     6  N   -0.295030
     7  C   -0.099136
     8  C   -0.179133
     9  C   -0.378996
    10  H    0.097000
    11  H    0.091238
    12  H    0.090898
    13  H    0.126598
    14  H    0.121879
    15  H    0.121167
    16  H    0.102460
    17  H    0.088603
    18  H    0.214395
    19  H    0.099606
    20  H    0.073092
    21  H    0.092335
    22  H    0.108633
    23  H    0.115003
    24  H    0.114951
    25  H    0.115731
 Sum of Mulliken charges =  -0.00000

 Dipole moment (field-independent basis, Debye):
    X=              1.4769    Y=              0.0771    Z=             -0.4833  Tot=              1.5558
 Quadrupole moment (field-independent basis, Debye-Ang):
   XX=            -62.1542   YY=            -55.7444   ZZ=            -58.6299
   XY=             -1.8220   XZ=             -0.7573   YZ=              0.6199

  Exact polarizability: 120.178   9.416  86.133 -10.457   0.272  79.610
 Approx polarizability: 141.616  14.877 127.078 -18.778  -2.510 121.587

                      1                      2                      3
                      A                      A                      A
 Frequencies --     38.2414                55.1040                74.1188
 Red. masses --      3.4773                 2.3304                 1.9384
 Frc consts  --      0.0030                 0.0042                 0.0063
 IR Inten    --      0.6671                 0.0663                 0.2822

                      4                      5                      6
                      A                      A                      A
 Frequencies --    117.7852               150.2088               169.3922
 Red. masses --      2.7993                 2.4862                 2.2779
 Frc consts  --      0.0229                 0.0331                 0.0385
 IR Inten    --      2.2582                 0.2932                 3.1633

                      7                      8                      9
                      A                      A                      A
 Frequencies --    190.9035               239.0281               242.5482
 Red. masses --      1.2059                 1.1514                 1.9120
 Frc consts  --      0.0259                 0.0388                 0.0663
 IR Inten    --      0.5073                 0.3715                 1.3390

                     10                     11                     12
                      A                      A                      A
 Frequencies --    301.0670               341.2453               362.3295
 Red. masses --      2.2578                 2.8627                 3.3448
 Frc consts  --      0.1206                 0.1964                 0.2587
 IR Inten    --      2.1181                 3.6391                 1.3018

                     13                     14                     15
                      A                      A                      A
 Frequencies --    424.0554               513.7426               608.8780
 Red. masses --      2.1158                 3.4726                 2.3982
 Frc consts  --      0.2242                 0.5400                 0.5238
 IR Inten    --      2.4075                 2.7181                 7.8901

                     16                     17                     18
                      A                      A                      A
 Frequencies --    705.8413               759.9985               795.4758
 Red. masses --      1.5602                 1.0832                 1.3072
 Frc consts  --      0.4580                 0.3686                 0.4873
 IR Inten    --      3.3188                 1.6130                24.4229

                     19                     20                     21
                      A                      A                      A
 Frequencies --    799.9564               826.3245               897.1208
 Red. masses --      1.2975                 2.8710                 1.1850
 Frc consts  --      0.4892                 1.1550                 0.5619
 IR Inten    --     94.9690                 2.4617                 4.8718

                     22                     23                     24
                      A                      A                      A
 Frequencies --    912.0432              1002.8386              1006.6651
 Red. masses --      1.7710                 1.2516                 1.9006
 Frc consts  --      0.8680                 0.7416                 1.1348
 IR Inten    --      0.8740                10.6542                10.9095

                     25                     26                     27
                      A                      A                      A
 Frequencies --   1032.7909              1052.7452              1060.2290
 Red. masses --      2.1030                 1.5750                 2.2103
 Frc consts  --      1.3217                 1.0284                 1.4638
 IR Inten    --     12.0656                 0.5809                16.9316

                     28                     29                     30
                      A                      A                      A
 Frequencies --   1109.0930              1126.1002              1147.2439
 Red. masses --      1.8685                 3.4912                 2.0753
 Frc consts  --      1.3542                 2.6084                 1.6093
 IR Inten    --    119.4430                78.5737                 2.6947

                     31                     32                     33
                      A                      A                      A
 Frequencies --   1149.8585              1183.1724              1244.7385
 Red. masses --      1.4204                 1.6303                 1.4245
 Frc consts  --      1.1065                 1.3447                 1.3004
 IR Inten    --     20.9448                 1.4829                 7.4202

                     34                     35                     36
                      A                      A                      A
 Frequencies --   1290.6804              1294.1722              1318.2213
 Red. masses --      1.5719                 2.1458                 1.2284
 Frc consts  --      1.5428                 2.1175                 1.2577
 IR Inten    --     37.0816                26.4164                 6.2023

                     37                     38                     39
                      A                      A                      A
 Frequencies --   1328.7663              1346.1258              1387.4928
 Red. masses --      1.1567                 1.4051                 1.3371
 Frc consts  --      1.2033                 1.5002                 1.5166
 IR Inten    --     16.1351                 7.2398                15.4312

                     40                     41                     42
                      A                      A                      A
 Frequencies --   1405.1003              1412.4643              1434.6636
 Red. masses --      1.8188                 1.2535                 1.3399
 Frc consts  --      2.1157                 1.4735                 1.6249
 IR Inten    --     60.3980                 2.5109                11.3086

                     43                     44                     45
                      A                      A                      A
 Frequencies --   1445.3512              1472.8029              1479.9896
 Red. masses --      1.2427                 1.1693                 1.1154
 Frc consts  --      1.5295                 1.4944                 1.4395
 IR Inten    --     15.7030                13.0875                37.0004

                     46                     47                     48
                      A                      A                      A
 Frequencies --   1488.6289              1490.1491              1500.4438
 Red. masses --      1.1585                 1.0755                 1.0416
 Frc consts  --      1.5125                 1.4070                 1.3816
 IR Inten    --     40.9929                 1.0224                 6.0752

                     49                     50                     51
                      A                      A                      A
 Frequencies --   1503.5557              1507.8371              1518.8554
 Red. masses --      1.0853                 1.0925                 1.0958
 Frc consts  --      1.4456                 1.4634                 1.4895
 IR Inten    --      1.6914                 6.8608                13.9938

                     52                     53                     54
                      A                      A                      A
 Frequencies --   1524.2886              1700.5351              2903.8244
 Red. masses --      1.0947                 4.5854                 1.0728
 Frc consts  --      1.4986                 7.8127                 5.3298
 IR Inten    --      3.2318               201.1786                70.3596

                     55                     56                     57
                      A                      A                      A
 Frequencies --   2939.1092              2999.8164              3010.6869
 Red. masses --      1.0697                 1.0456                 1.0739
 Frc consts  --      5.4443                 5.5440                 5.7350
 IR Inten    --     81.3061                38.9856                 3.0365

                     58                     59                     60
                      A                      A                      A
 Frequencies --   3022.5545              3025.7286              3031.1746
 Red. masses --      1.0790                 1.0841                 1.0378
 Frc consts  --      5.8078                 5.8474                 5.6180
 IR Inten    --      7.1999                72.1070                45.5348

                     61                     62                     63
                      A                      A                      A
 Frequencies --   3063.8979              3064.4058              3097.3490
 Red. masses --      1.0969                 1.0914                 1.1021
 Frc consts  --      6.0668                 6.0383                 6.2295
 IR Inten    --     13.2562                32.5310                52.0005

                     64                     65                     66
                      A                      A                      A
 Frequencies --   3105.1827              3121.9359              3146.2569
 Red. masses --      1.1006                 1.0996                 1.0854
 Frc consts  --      6.2526                 6.3146                 6.3303
 IR Inten    --     33.5869                17.8933                15.5797

                     67                     68                     69
                      A                      A                      A
 Frequencies --   3177.3172              3258.9648              3493.5428
 Red. masses --      1.0629                 1.1149                 1.0734
 Frc consts  --      6.3222                 6.9766                 7.7189
 IR Inten    --      0.3356                11.8403                 0.2246

 - Thermochemistry -
 -------------------
 Temperature   298.150 Kelvin.  Pressure   1.00000 Atm.
 Atom     1 has atomic number  6 and mass  12.00000

 Molecular mass:   128.13135 amu.
 Principal axes and moments of inertia in atomic units:
                           1         2         3
     Eigenvalues --   433.627943217.776343320.50472
           X            0.99998  -0.00279  -0.00587
           Y            0.00306   0.99889   0.04692
           Z            0.00573  -0.04693   0.99888
 This molecule is an asymmetric top.
 Rotational symmetry number  1.
 Warning -- assumption of classical behavior for rotation
           may cause significant error
 Rotational temperatures (Kelvin)      0.19974     0.02692     0.02608
 Rotational constants (GHZ):           4.16196     0.56087     0.54351
 Zero-point vibrational energy     597850.2 (Joules/Mol)
                                  142.88964 (Kcal/Mol)
 Warning -- explicit consideration of  15 degrees of freedom as
           vibrations may cause significant error
 Vibrational temperatures:     55.02    79.28   106.64   169.47   216.12
          (Kelvin)            243.72   274.67   343.91   348.97   433.17
                              490.98   521.31   610.12   739.16   876.04
                             1015.55  1093.47  1144.51  1150.96  1188.90
                             1290.76  1312.23  1442.86  1448.37  1485.96
                             1514.67  1525.43  1595.74  1620.21  1650.63
                             1654.39  1702.32  1790.90  1857.00  1862.03
                             1896.63  1911.80  1936.77  1996.29  2021.63
                             2032.22  2064.16  2079.54  2119.03  2129.37
                             2141.80  2143.99  2158.80  2163.28  2169.44
                             2185.29  2193.11  2446.69  4177.96  4228.72
                             4316.07  4331.71  4348.78  4353.35  4361.18
                             4408.27  4409.00  4456.39  4467.67  4491.77
                             4526.76  4571.45  4688.92  5026.43

 Zero-point correction=                           0.227709 (Hartree/Particle)
 Thermal correction to Energy=                    0.239288
 Thermal correction to Enthalpy=                  0.240232
 Thermal correction to Gibbs Free Energy=         0.189595
 Sum of electronic and zero-point Energies=           -385.653620
 Sum of electronic and thermal Energies=              -385.642041
 Sum of electronic and thermal Enthalpies=            -385.641097
 Sum of electronic and thermal Free Energies=         -385.691734

                     E (Thermal)             CV                S
                      KCal/Mol        Cal/Mol-Kelvin    Cal/Mol-Kelvin
 Total                  150.155             40.972            106.574
 Electronic               0.000              0.000              0.000
 Translational            0.889              2.981             40.457
 Rotational               0.889              2.981             29.917
 Vibrational            148.378             35.010             36.200
 Vibration     1          0.594              1.982              5.348
 Vibration     2          0.596              1.976              4.625
 Vibration     3          0.599              1.966              4.041
 Vibration     4          0.608              1.935              3.136
 Vibration     5          0.618              1.902              2.670
 Vibration     6          0.625              1.880              2.442
 Vibration     7          0.634              1.852              2.219
 Vibration     8          0.657              1.781              1.810
 Vibration     9          0.659              1.775              1.784
 Vibration    10          0.693              1.672              1.411
 Vibration    11          0.721              1.593              1.206
 Vibration    12          0.736              1.550              1.112
 Vibration    13          0.786              1.418              0.878
 Vibration    14          0.869              1.220              0.625
 Vibration    15          0.968              1.013              0.435

 Optimization completed.
    -- Stationary point found.
 Normal termination of Gaussian 16 at Tue Jun  1 18:15:12 2021.
