 Gaussian 16, Revision A.03,
 Gaussian 16:  ES64L-G16RevA.03 25-Dec-2016

 -----------------------------
 # opt freq b3lyp/6-31g(2df,p)
 -----------------------------

 -------------------
 Title Card Required
 -------------------
 Symbolic Z-matrix:
 Charge =  0 Multiplicity = 1

 SCF Done:  E(RB3LYP) =  -350.388863103     A.U. after   13 cycles
 SCF Done:  E(RB3LYP) =  -350.391191290     A.U. after   11 cycles
 SCF Done:  E(RB3LYP) =  -350.391398153     A.U. after    9 cycles
 SCF Done:  E(RB3LYP) =  -350.391419973     A.U. after    8 cycles
 SCF Done:  E(RB3LYP) =  -350.391421521     A.U. after    7 cycles
 Optimization completed.
    -- Stationary point found.
 Normal termination of Gaussian 16 at Mon May 31 11:53:35 2021.

 ----------------------------------------------------------------------
 #N Geom=AllCheck Guess=TCheck SCRF=Check GenChk RB3LYP/6-31G(2df,p) Fr
 eq
 ----------------------------------------------------------------------

 Structure from the checkpoint file:  "CdCpCCCpCOC.chk"
 -------------------
 Title Card Required
 -------------------
 Charge =  0 Multiplicity = 1

                         Standard orientation:
 ---------------------------------------------------------------------
 Center     Atomic      Atomic             Coordinates (Angstroms)
 Number     Number       Type             X           Y           Z
 ---------------------------------------------------------------------
      1          6           0        0.351816    2.191079    0.000003
      2          6           0       -0.066827    0.926672   -0.000001
      3          6           0        0.846683   -0.276055   -0.000003
      4          6           0        2.348077    0.015192    0.000001
      5          6           0        3.188315   -1.265373   -0.000000
      6          6           0       -1.562862    0.642650   -0.000006
      7          8           0       -1.809702   -0.746698    0.000007
      8          6           0       -3.181489   -1.052753    0.000001
      9          1           0        1.401523    2.455852    0.000006
     10          1           0       -0.350821    3.019915    0.000005
     11          1           0        0.591075   -0.903268   -0.864878
     12          1           0        0.591071   -0.903272    0.864868
     13          1           0        2.605694    0.621225    0.877448
     14          1           0        2.605698    0.621230   -0.877441
     15          1           0        2.977098   -1.878263    0.883392
     16          1           0        4.259189   -1.039388    0.000003
     17          1           0        2.977102   -1.878258   -0.883398
     18          1           0       -2.033352    1.106624   -0.884292
     19          1           0       -2.033362    1.106643    0.884264
     20          1           0       -3.275002   -2.141399    0.000011
     21          1           0       -3.690283   -0.651274   -0.891285
     22          1           0       -3.690295   -0.651256    0.891271
 ---------------------------------------------------------------------

 SCF Done:  E(RB3LYP) =  -350.391421521     A.U. after    1 cycles

 The electronic state is 1-A.
 Alpha  occ. eigenvalues --  -19.14076 -10.22807 -10.22510 -10.18726 -10.17420
 Alpha  occ. eigenvalues --  -10.17381 -10.16819 -10.16131  -1.03508  -0.80899
 Alpha  occ. eigenvalues --   -0.75877  -0.70405  -0.67293  -0.63393  -0.59168
 Alpha  occ. eigenvalues --   -0.51800  -0.48502  -0.47699  -0.46561  -0.45252
 Alpha  occ. eigenvalues --   -0.42699  -0.41022  -0.40376  -0.37573  -0.37316
 Alpha  occ. eigenvalues --   -0.36317  -0.33867  -0.32400  -0.31969  -0.30775
 Alpha  occ. eigenvalues --   -0.26569  -0.23121
 Alpha virt. eigenvalues --    0.02612   0.08686   0.10208   0.12257   0.13499
 Alpha virt. eigenvalues --    0.14847   0.15155   0.15417   0.16617   0.16809
 Alpha virt. eigenvalues --    0.17375   0.18874   0.19124   0.19724   0.20040

 Mulliken charges:
               1
     1  C   -0.397451
     2  C    0.286391
     3  C   -0.228525
     4  C   -0.185053
     5  C   -0.383312
     6  C   -0.130047
     7  O   -0.233360
     8  C   -0.225084
     9  H    0.107097
    10  H    0.091644
    11  H    0.113782
    12  H    0.113783
    13  H    0.099831
    14  H    0.099831
    15  H    0.113687
    16  H    0.108928
    17  H    0.113687
    18  H    0.099836
    19  H    0.099836
    20  H    0.127126
    21  H    0.103686
    22  H    0.103686
 Sum of Mulliken charges =  -0.00000

 Dipole moment (field-independent basis, Debye):
    X=             -0.9957    Y=              0.0848    Z=             -0.0000  Tot=              0.9993
 Quadrupole moment (field-independent basis, Debye-Ang):
   XX=            -45.9537   YY=            -51.3971   ZZ=            -51.8792
   XY=              0.2602   XZ=              0.0000   YZ=              0.0000

  Exact polarizability:  94.116   3.118  90.184   0.000   0.000  60.878
 Approx polarizability: 111.237   7.633 130.602   0.000   0.000  92.957

 ******    1 imaginary frequencies (negative Signs) ******

                      1                      2                      3
                      A                      A                      A
 Frequencies --   -110.5721                74.1723               110.6586
 Red. masses --      2.1127                 2.0046                 1.9769
 Frc consts  --      0.0152                 0.0065                 0.0143
 IR Inten    --      3.4018                 1.2107                 0.5738

                      4                      5                      6
                      A                      A                      A
 Frequencies --    114.9918               118.0958               229.3286
 Red. masses --      2.4555                 3.3742                 1.1116
 Frc consts  --      0.0191                 0.0277                 0.0344
 IR Inten    --      0.4341                 0.8351                 1.7805

                      7                      8                      9
                      A                      A                      A
 Frequencies --    241.8515               246.1720               336.0348
 Red. masses --      2.9175                 1.1105                 3.4777
 Frc consts  --      0.1005                 0.0397                 0.2314
 IR Inten    --      0.7913                 0.0109                 1.3022

                     10                     11                     12
                      A                      A                      A
 Frequencies --    352.8163               446.9232               455.1138
 Red. masses --      2.8747                 2.2501                 3.2254
 Frc consts  --      0.2108                 0.2648                 0.3936
 IR Inten    --      0.0087                 3.0903                 2.2772

                     13                     14                     15
                      A                      A                      A
 Frequencies --    561.3077               682.4672               755.5579
 Red. masses --      3.2059                 1.0535                 1.0997
 Frc consts  --      0.5951                 0.2891                 0.3699
 IR Inten    --      0.2360                 0.1686                 2.1796

                     16                     17                     18
                      A                      A                      A
 Frequencies --    834.2158               886.0742               914.2843
 Red. masses --      2.8674                 1.1984                 1.3337
 Frc consts  --      1.1757                 0.5543                 0.6568
 IR Inten    --      3.6315                 2.4120                29.7393

                     19                     20                     21
                      A                      A                      A
 Frequencies --    926.2319               968.5517              1018.7978
 Red. masses --      1.9328                 1.8707                 3.8745
 Frc consts  --      0.9769                 1.0339                 2.3694
 IR Inten    --      3.8338                 3.2197                21.1777

                     22                     23                     24
                      A                      A                      A
 Frequencies --   1020.7614              1054.0363              1116.5974
 Red. masses --      1.4846                 2.4870                 2.1256
 Frc consts  --      0.9114                 1.6279                 1.5614
 IR Inten    --      0.5680                 0.3122                 2.2804

                     25                     26                     27
                      A                      A                      A
 Frequencies --   1132.7354              1162.1197              1186.0870
 Red. masses --      1.5928                 3.9290                 1.2807
 Frc consts  --      1.2041                 3.1263                 1.0615
 IR Inten    --      0.0578               135.0151                 2.8413

                     28                     29                     30
                      A                      A                      A
 Frequencies --   1224.3390              1249.7268              1256.8303
 Red. masses --      2.0182                 1.7509                 1.1953
 Frc consts  --      1.7824                 1.6112                 1.1124
 IR Inten    --     70.2981                 2.9340                 3.8854

                     31                     32                     33
                      A                      A                      A
 Frequencies --   1270.2621              1321.3403              1332.3673
 Red. masses --      1.1921                 1.0824                 1.7014
 Frc consts  --      1.1333                 1.1135                 1.7796
 IR Inten    --      1.6958                 0.1433                 2.3532

                     34                     35                     36
                      A                      A                      A
 Frequencies --   1391.5172              1404.2006              1412.5714
 Red. masses --      1.3978                 1.6339                 1.2450
 Frc consts  --      1.5947                 1.8981                 1.4636
 IR Inten    --     23.8679                13.3143                 1.0044

                     37                     38                     39
                      A                      A                      A
 Frequencies --   1452.0076              1467.6465              1478.1337
 Red. masses --      1.1744                 1.0863                 1.1421
 Frc consts  --      1.4588                 1.3787                 1.4702
 IR Inten    --      3.3527                13.4045                 1.9705

                     40                     41                     42
                      A                      A                      A
 Frequencies --   1484.5931              1494.6586              1498.4629
 Red. masses --      1.0464                 1.0504                 1.0611
 Frc consts  --      1.3589                 1.3826                 1.4037
 IR Inten    --      4.9641                 1.3309                11.4516

                     43                     44                     45
                      A                      A                      A
 Frequencies --   1499.5179              1510.6854              1523.4241
 Red. masses --      1.0402                 1.0856                 1.0899
 Frc consts  --      1.3781                 1.4597                 1.4903
 IR Inten    --      4.7647                 2.1328                 0.7749

                     46                     47                     48
                      A                      A                      A
 Frequencies --   1716.2930              2941.6811              2962.4603
 Red. masses --      5.4239                 1.0532                 1.1046
 Frc consts  --      9.4134                 5.3696                 5.7116
 IR Inten    --     15.3159                25.4066                53.7597

                     49                     50                     51
                      A                      A                      A
 Frequencies --   2967.1437              3008.2293              3015.2808
 Red. masses --      1.0384                 1.1029                 1.0593
 Frc consts  --      5.3863                 5.8807                 5.6743
 IR Inten    --     81.2233                56.1269                 1.9440

                     52                     53                     54
                      A                      A                      A
 Frequencies --   3024.6821              3029.1043              3032.9004
 Red. masses --      1.0569                 1.0384                 1.0974
 Frc consts  --      5.6968                 5.6138                 5.9476
 IR Inten    --     22.6331                44.4602                 2.6522

                     55                     56                     57
                      A                      A                      A
 Frequencies --   3059.6114              3095.8796              3100.8180
 Red. masses --      1.1024                 1.1023                 1.1009
 Frc consts  --      6.0804                 6.2246                 6.2369
 IR Inten    --     17.6722                53.4403                35.8745

                     58                     59                     60
                      A                      A                      A
 Frequencies --   3113.7222              3145.3455              3233.8464
 Red. masses --      1.0956                 1.0645                 1.1100
 Frc consts  --      6.2582                 6.2048                 6.8396
 IR Inten    --     28.7558                 9.1742                12.0308

 - Thermochemistry -
 -------------------
 Temperature   298.150 Kelvin.  Pressure   1.00000 Atm.
 Atom     1 has atomic number  6 and mass  12.00000

 Molecular mass:   114.10447 amu.
 Principal axes and moments of inertia in atomic units:
                           1         2         3
     Eigenvalues --   559.998461815.719912319.93915
           X            0.99994  -0.01061   0.00000
           Y            0.01061   0.99994   0.00000
           Z           -0.00000  -0.00000   1.00000
 This molecule is an asymmetric top.
 Rotational symmetry number  1.
 Warning -- assumption of classical behavior for rotation
           may cause significant error
 Rotational temperatures (Kelvin)      0.15467     0.04770     0.03733
 Rotational constants (GHZ):           3.22276     0.99395     0.77793
    1 imaginary frequencies ignored.
 Zero-point vibrational energy     518373.4 (Joules/Mol)
                                  123.89422 (Kcal/Mol)
 Warning -- explicit consideration of  12 degrees of freedom as
           vibrations may cause significant error
 Vibrational temperatures:    106.72   159.21   165.45   169.91   329.95
          (Kelvin)            347.97   354.19   483.48   507.62   643.02
                              654.81   807.60   981.92  1087.08  1200.25
                             1274.86  1315.45  1332.64  1393.53  1465.82
                             1468.65  1516.52  1606.53  1629.75  1672.03
                             1706.51  1761.55  1798.08  1808.30  1827.62
                             1901.11  1916.98  2002.08  2020.33  2032.38
                             2089.12  2111.62  2126.70  2136.00  2150.48
                             2155.95  2157.47  2173.54  2191.87  2469.36
                             4232.42  4262.32  4269.06  4328.17  4338.32
                             4351.84  4358.21  4363.67  4402.10  4454.28
                             4461.39  4479.95  4525.45  4652.78

 Zero-point correction=                           0.197438 (Hartree/Particle)
 Thermal correction to Energy=                    0.206933
 Thermal correction to Enthalpy=                  0.207877
 Thermal correction to Gibbs Free Energy=         0.162757
 Sum of electronic and zero-point Energies=           -350.193984
 Sum of electronic and thermal Energies=              -350.184489
 Sum of electronic and thermal Enthalpies=            -350.183545
 Sum of electronic and thermal Free Energies=         -350.228665

                     E (Thermal)             CV                S
                      KCal/Mol        Cal/Mol-Kelvin    Cal/Mol-Kelvin
 Total                  129.852             34.169             94.963
 Electronic               0.000              0.000              0.000
 Translational            0.889              2.981             40.111
 Rotational               0.889              2.981             29.246
 Vibrational            128.075             28.208             25.606
 Vibration     1          0.599              1.966              4.039
 Vibration     2          0.606              1.941              3.257
 Vibration     3          0.608              1.937              3.183
 Vibration     4          0.608              1.934              3.131
 Vibration     5          0.652              1.796              1.884
 Vibration     6          0.658              1.776              1.789
 Vibration     7          0.661              1.769              1.758
 Vibration     8          0.717              1.604              1.231
 Vibration     9          0.729              1.569              1.154
 Vibration    10          0.806              1.368              0.805
 Vibration    11          0.813              1.350              0.780
 Vibration    12          0.917              1.115              0.521

 Optimization completed.
    -- Stationary point found.
 Normal termination of Gaussian 16 at Mon May 31 12:17:41 2021.
