 Gaussian 16, Revision A.03,
 Gaussian 16:  ES64L-G16RevA.03 25-Dec-2016

 -----------------------------
 # opt freq b3lyp/6-31g(2df,p)
 -----------------------------

 -------------------
 Title Card Required
 -------------------
 Symbolic Z-matrix:
 Charge =  0 Multiplicity = 1

 SCF Done:  E(RB3LYP) =  -306.019475191     A.U. after   12 cycles
 SCF Done:  E(RB3LYP) =  -306.023036544     A.U. after   12 cycles
 SCF Done:  E(RB3LYP) =  -306.023256071     A.U. after   10 cycles
 SCF Done:  E(RB3LYP) =  -306.023269491     A.U. after    9 cycles
 SCF Done:  E(RB3LYP) =  -306.023274519     A.U. after    8 cycles
 SCF Done:  E(RB3LYP) =  -306.023274833     A.U. after    7 cycles
 SCF Done:  E(RB3LYP) =  -306.023274927     A.U. after    6 cycles
 SCF Done:  E(RB3LYP) =  -306.022870061     A.U. after   12 cycles
 SCF Done:  E(RB3LYP) =  -306.023467521     A.U. after   11 cycles
 SCF Done:  E(RB3LYP) =  -305.986810825     A.U. after   12 cycles
 SCF Done:  E(RB3LYP) =  -306.039462087     A.U. after   11 cycles
 SCF Done:  E(RB3LYP) =  -306.039756047     A.U. after   11 cycles
 SCF Done:  E(RB3LYP) =  -306.039819369     A.U. after   10 cycles
 SCF Done:  E(RB3LYP) =  -306.039845311     A.U. after    9 cycles
 SCF Done:  E(RB3LYP) =  -306.039851012     A.U. after    8 cycles
 SCF Done:  E(RB3LYP) =  -306.039853574     A.U. after    8 cycles
 SCF Done:  E(RB3LYP) =  -306.039854537     A.U. after    7 cycles
 SCF Done:  E(RB3LYP) =  -306.039854741     A.U. after    7 cycles
 SCF Done:  E(RB3LYP) =  -306.039854816     A.U. after    7 cycles
 Optimization completed.
    -- Stationary point found.
 Normal termination of Gaussian 16 at Mon May 31 13:28:38 2021.

 ----------------------------------------------------------------------
 #N Geom=AllCheck Guess=TCheck SCRF=Check GenChk RB3LYP/6-31G(2df,p) Fr
 eq
 ----------------------------------------------------------------------

 Structure from the checkpoint file:  "CdCpNpCCdCN.chk"
 -------------------
 Title Card Required
 -------------------
 Charge =  0 Multiplicity = 1

                         Standard orientation:
 ---------------------------------------------------------------------
 Center     Atomic      Atomic             Coordinates (Angstroms)
 Number     Number       Type             X           Y           Z
 ---------------------------------------------------------------------
      1          6           0        2.828053   -0.460731    0.271300
      2          6           0        1.623580    0.040304   -0.031915
      3          7           0        1.331877    1.401877   -0.047960
      4          6           0        0.439835   -0.852406   -0.365475
      5          6           0       -0.842682   -0.466540    0.320807
      6          6           0       -1.964683   -0.138060   -0.327955
      7          7           0       -3.154389    0.322577    0.240199
      8          1           0        3.680662    0.177213    0.479291
      9          1           0        2.982901   -1.529799    0.327834
     10          1           0        2.115110    2.021074   -0.191190
     11          1           0        0.513100    1.664582   -0.575382
     12          1           0        0.721575   -1.882757   -0.118992
     13          1           0        0.277815   -0.825772   -1.453318
     14          1           0       -0.827079   -0.444457    1.409576
     15          1           0       -1.988752   -0.158683   -1.416407
     16          1           0       -3.232690    0.151136    1.234076
     17          1           0       -3.989683    0.020883   -0.241730
 ---------------------------------------------------------------------

 SCF Done:  E(RB3LYP) =  -306.039854816     A.U. after    1 cycles

 The electronic state is 1-A.
 Alpha  occ. eigenvalues --  -14.33239 -14.31667 -10.20814 -10.20232 -10.18087
 Alpha  occ. eigenvalues --  -10.16247 -10.13520  -0.90366  -0.89491  -0.77108
 Alpha  occ. eigenvalues --   -0.71717  -0.65590  -0.57032  -0.54362  -0.50464
 Alpha  occ. eigenvalues --   -0.49578  -0.47769  -0.44045  -0.40715  -0.38619
 Alpha  occ. eigenvalues --   -0.38062  -0.35629  -0.33920  -0.32882  -0.30768
 Alpha  occ. eigenvalues --   -0.20038  -0.18722
 Alpha virt. eigenvalues --    0.04297   0.06078   0.08570   0.09592   0.11029
 Alpha virt. eigenvalues --    0.14397   0.14886   0.16688   0.17235   0.18061
 Alpha virt. eigenvalues --    0.18643   0.21222   0.25425   0.26373   0.31606

 Mulliken charges:
               1
     1  C   -0.449068
     2  C    0.395439
     3  N   -0.544629
     4  C   -0.320103
     5  C   -0.085494
     6  C    0.010682
     7  N   -0.511662
     8  H    0.076968
     9  H    0.089970
    10  H    0.240595
    11  H    0.240190
    12  H    0.108226
    13  H    0.097828
    14  H    0.072247
    15  H    0.089620
    16  H    0.244119
    17  H    0.245073
 Sum of Mulliken charges =  -0.00000

 Dipole moment (field-independent basis, Debye):
    X=             -2.2604    Y=              0.1927    Z=             -0.8548  Tot=              2.4243
 Quadrupole moment (field-independent basis, Debye-Ang):
   XX=            -37.3371   YY=            -42.6581   ZZ=            -42.1146
   XY=              4.6630   XZ=             -1.2914   YZ=             -1.8141

  Exact polarizability: 106.149 -10.994  58.631   7.738  -1.848  51.750
 Approx polarizability: 142.251 -23.395  88.789  16.483  -4.987  79.931

                      1                      2                      3
                      A                      A                      A
 Frequencies --     62.3117                85.8659               165.9550
 Red. masses --      3.0058                 3.4158                 1.7028
 Frc consts  --      0.0069                 0.0148                 0.0276
 IR Inten    --      4.1383                 0.7403                10.4650

                      4                      5                      6
                      A                      A                      A
 Frequencies --    278.5762               308.2944               331.4366
 Red. masses --      2.6874                 2.4523                 1.1656
 Frc consts  --      0.1229                 0.1373                 0.0754
 IR Inten    --      7.0764                12.2666                21.9924

                      7                      8                      9
                      A                      A                      A
 Frequencies --    371.1806               384.1682               476.0241
 Red. masses --      1.3933                 2.2576                 2.1481
 Frc consts  --      0.1131                 0.1963                 0.2868
 IR Inten    --     58.8075                 4.7007                 9.8175

                     10                     11                     12
                      A                      A                      A
 Frequencies --    497.5749               537.2225               635.3431
 Red. masses --      1.4612                 1.8955                 2.5108
 Frc consts  --      0.2131                 0.3223                 0.5971
 IR Inten    --    124.6881               102.8131                 9.6026

                     13                     14                     15
                      A                      A                      A
 Frequencies --    677.7116               722.3308               799.1577
 Red. masses --      1.3813                 1.1220                 1.4350
 Frc consts  --      0.3738                 0.3449                 0.5400
 IR Inten    --    262.3483                 4.8303                52.2261

                     16                     17                     18
                      A                      A                      A
 Frequencies --    819.2109               885.1686               923.5053
 Red. masses --      1.9200                 3.0922                 1.9067
 Frc consts  --      0.7592                 1.4275                 0.9581
 IR Inten    --     20.1327                 8.1807                 1.2039

                     19                     20                     21
                      A                      A                      A
 Frequencies --    985.5593              1000.0005              1045.4609
 Red. masses --      1.1257                 1.5957                 1.7180
 Frc consts  --      0.6442                 0.9402                 1.1063
 IR Inten    --     32.0823                11.0391                 2.4159

                     22                     23                     24
                      A                      A                      A
 Frequencies --   1122.5271              1138.2529              1192.7828
 Red. masses --      1.5057                 1.7400                 1.5786
 Frc consts  --      1.1179                 1.3282                 1.3233
 IR Inten    --     12.3851                 1.8850                29.2615

                     25                     26                     27
                      A                      A                      A
 Frequencies --   1258.7404              1313.9645              1335.0607
 Red. masses --      1.5059                 1.3715                 1.3002
 Frc consts  --      1.4058                 1.3952                 1.3654
 IR Inten    --     61.5980                 4.9895                 0.7661

                     28                     29                     30
                      A                      A                      A
 Frequencies --   1364.9116              1387.4692              1451.6159
 Red. masses --      2.9043                 1.4061                 1.1579
 Frc consts  --      3.1879                 1.5948                 1.4375
 IR Inten    --     27.8003                 3.5957                 1.5792

                     31                     32                     33
                      A                      A                      A
 Frequencies --   1467.1320              1640.8591              1650.2127
 Red. masses --      1.1002                 1.1497                 1.1352
 Frc consts  --      1.3953                 1.8237                 1.8215
 IR Inten    --      4.5017                51.2453                32.5922

                     34                     35                     36
                      A                      A                      A
 Frequencies --   1712.5359              1744.9768              2997.1679
 Red. masses --      5.6074                 5.0402                 1.0646
 Frc consts  --      9.6892                 9.0424                 5.6345
 IR Inten    --     77.8989               160.3450                25.2865

                     37                     38                     39
                      A                      A                      A
 Frequencies --   3050.5049              3134.9662              3145.5202
 Red. masses --      1.0951                 1.0896                 1.0873
 Frc consts  --      6.0043                 6.3091                 6.3385
 IR Inten    --     28.2612                13.6604                25.3814

                     40                     41                     42
                      A                      A                      A
 Frequencies --   3154.6634              3244.4457              3543.6319
 Red. masses --      1.0621                 1.1127                 1.0472
 Frc consts  --      6.2278                 6.9012                 7.7481
 IR Inten    --      7.7997                12.5628                 9.5438

                     43                     44                     45
                      A                      A                      A
 Frequencies --   3568.0828              3641.7803              3676.7959
 Red. masses --      1.0461                 1.0969                 1.0993
 Frc consts  --      7.8471                 8.5715                 8.7562
 IR Inten    --      9.7285                 7.9448                14.6051

 - Thermochemistry -
 -------------------
 Temperature   298.150 Kelvin.  Pressure   1.00000 Atm.
 Atom     1 has atomic number  6 and mass  12.00000

 Molecular mass:    98.08440 amu.
 Principal axes and moments of inertia in atomic units:
                           1         2         3
     Eigenvalues --   254.388751508.824971660.90015
           X            1.00000  -0.00074   0.00046
           Y            0.00074   0.99992  -0.01287
           Z           -0.00045   0.01288   0.99992
 This molecule is an asymmetric top.
 Rotational symmetry number  1.
 Rotational temperatures (Kelvin)      0.34048     0.05740     0.05215
 Rotational constants (GHZ):           7.09442     1.19612     1.08660
 Zero-point vibrational energy     388371.6 (Joules/Mol)
                                   92.82304 (Kcal/Mol)
 Warning -- explicit consideration of  11 degrees of freedom as
           vibrations may cause significant error
 Vibrational temperatures:     89.65   123.54   238.77   400.81   443.57
          (Kelvin)            476.86   534.05   552.73   684.89   715.90
                              772.94   914.12   975.08  1039.27  1149.81
                             1178.66  1273.56  1328.72  1418.00  1438.78
                             1504.19  1615.07  1637.69  1716.15  1811.05
                             1890.50  1920.85  1963.80  1996.26  2088.55
                             2110.88  2360.83  2374.29  2463.96  2510.63
                             4312.26  4389.00  4510.52  4525.70  4538.86
                             4668.03  5098.50  5133.68  5239.71  5290.09

 Zero-point correction=                           0.147923 (Hartree/Particle)
 Thermal correction to Energy=                    0.156377
 Thermal correction to Enthalpy=                  0.157321
 Thermal correction to Gibbs Free Energy=         0.115168
 Sum of electronic and zero-point Energies=           -305.891932
 Sum of electronic and thermal Energies=              -305.883478
 Sum of electronic and thermal Enthalpies=            -305.882534
 Sum of electronic and thermal Free Energies=         -305.924687

                     E (Thermal)             CV                S
                      KCal/Mol        Cal/Mol-Kelvin    Cal/Mol-Kelvin
 Total                   98.128             31.223             88.720
 Electronic               0.000              0.000              0.000
 Translational            0.889              2.981             39.660
 Rotational               0.889              2.981             27.946
 Vibrational             96.351             25.261             21.113
 Vibration     1          0.597              1.972              4.383
 Vibration     2          0.601              1.959              3.752
 Vibration     3          0.624              1.884              2.481
 Vibration     4          0.679              1.713              1.542
 Vibration     5          0.698              1.658              1.371
 Vibration     6          0.714              1.613              1.253
 Vibration     7          0.743              1.531              1.075
 Vibration     8          0.753              1.504              1.023
 Vibration     9          0.833              1.303              0.721
 Vibration    10          0.853              1.255              0.664
 Vibration    11          0.892              1.168              0.571

 Optimization completed.
    -- Stationary point found.
 Normal termination of Gaussian 16 at Mon May 31 13:44:00 2021.
