 Gaussian 16, Revision A.03,
 Gaussian 16:  ES64L-G16RevA.03 25-Dec-2016

 -----------------------------
 # opt freq b3lyp/6-31g(2df,p)
 -----------------------------

 -------------------
 Title Card Required
 -------------------
 Symbolic Z-matrix:
 Charge =  0 Multiplicity = 1

 SCF Done:  E(RB3LYP) =  -457.251569616     A.U. after   13 cycles
 SCF Done:  E(RB3LYP) =  -457.258533395     A.U. after   13 cycles
 SCF Done:  E(RB3LYP) =  -457.259967014     A.U. after   12 cycles
 SCF Done:  E(RB3LYP) =  -457.260663907     A.U. after   12 cycles
 SCF Done:  E(RB3LYP) =  -457.261567477     A.U. after   14 cycles
 SCF Done:  E(RB3LYP) =  -457.262121898     A.U. after   10 cycles
 SCF Done:  E(RB3LYP) =  -457.262593972     A.U. after   12 cycles
 SCF Done:  E(RB3LYP) =  -457.262634238     A.U. after   11 cycles
 SCF Done:  E(RB3LYP) =  -457.262746129     A.U. after   10 cycles
 SCF Done:  E(RB3LYP) =  -457.262775322     A.U. after   10 cycles
 SCF Done:  E(RB3LYP) =  -457.262784651     A.U. after   11 cycles
 SCF Done:  E(RB3LYP) =  -457.262786395     A.U. after   11 cycles
 SCF Done:  E(RB3LYP) =  -457.262790505     A.U. after   12 cycles
 SCF Done:  E(RB3LYP) =  -457.262792713     A.U. after   11 cycles
 SCF Done:  E(RB3LYP) =  -457.262794805     A.U. after    8 cycles
 SCF Done:  E(RB3LYP) =  -457.262795091     A.U. after    9 cycles
 SCF Done:  E(RB3LYP) =  -457.262795291     A.U. after    8 cycles
 SCF Done:  E(RB3LYP) =  -457.262795341     A.U. after    6 cycles
 SCF Done:  E(RB3LYP) =  -457.262795349     A.U. after    7 cycles
 Optimization completed.
    -- Stationary point found.
 Normal termination of Gaussian 16 at Mon May 31 18:00:15 2021.

 ----------------------------------------------------------------------
 #N Geom=AllCheck Guess=TCheck SCRF=Check GenChk RB3LYP/6-31G(2df,p) Fr
 eq
 ----------------------------------------------------------------------

 Structure from the checkpoint file:  "CdNCNCNCpNpCC.chk"
 -------------------
 Title Card Required
 -------------------
 Charge =  0 Multiplicity = 1

                         Standard orientation:
 ---------------------------------------------------------------------
 Center     Atomic      Atomic             Coordinates (Angstroms)
 Number     Number       Type             X           Y           Z
 ---------------------------------------------------------------------
      1          6           0        4.959309    0.111149   -0.402996
      2          7           0        3.966231   -0.553727    0.003537
      3          6           0        2.817426    0.172698    0.509546
      4          7           0        1.631313   -0.295408   -0.188778
      5          6           0        0.398056    0.176088    0.420259
      6          7           0       -0.753152   -0.378869   -0.270086
      7          6           0       -2.045915    0.162190    0.173301
      8          7           0       -2.282803    1.514053   -0.321295
      9          6           0       -3.161854   -0.772722   -0.314383
     10          6           0       -4.549169   -0.375143    0.189912
     11          1           0        5.839607   -0.414375   -0.776043
     12          1           0        5.000019    1.209969   -0.407103
     13          1           0        2.903563    1.265044    0.370465
     14          1           0        2.776324   -0.015673    1.601249
     15          1           0        1.656296   -1.311876   -0.192053
     16          1           0        0.367260    1.268591    0.313103
     17          1           0        0.368811   -0.029451    1.518160
     18          1           0       -0.758310   -1.387811   -0.146695
     19          1           0       -2.102481    0.226263    1.276353
     20          1           0       -2.011777    1.550015   -1.301413
     21          1           0       -1.702408    2.187280    0.166914
     22          1           0       -2.929026   -1.796608    0.006986
     23          1           0       -3.142055   -0.780600   -1.411700
     24          1           0       -4.603724   -0.430099    1.283123
     25          1           0       -5.318806   -1.039442   -0.214734
     26          1           0       -4.781538    0.650877   -0.104092
 ---------------------------------------------------------------------

 SCF Done:  E(RB3LYP) =  -457.262795349     A.U. after    1 cycles

 The electronic state is 1-A.
 Alpha  occ. eigenvalues --  -14.33247 -14.31214 -14.30943 -14.30427 -10.23337
 Alpha  occ. eigenvalues --  -10.23056 -10.22922 -10.22692 -10.17584 -10.16388
 Alpha  occ. eigenvalues --   -0.94611  -0.92384  -0.88340  -0.83493  -0.75837
 Alpha  occ. eigenvalues --   -0.69736  -0.65033  -0.61661  -0.58543  -0.57701
 Alpha  occ. eigenvalues --   -0.50380  -0.49389  -0.48733  -0.48196  -0.45719
 Alpha  occ. eigenvalues --   -0.44375  -0.43481  -0.42605  -0.40225  -0.38547
 Alpha  occ. eigenvalues --   -0.38139  -0.36640  -0.34631  -0.33228  -0.32607
 Alpha  occ. eigenvalues --   -0.31506  -0.25921  -0.24676  -0.22973  -0.22024
 Alpha virt. eigenvalues --   -0.01027   0.07501   0.09127   0.10130   0.11146
 Alpha virt. eigenvalues --    0.12194   0.12644   0.14572   0.15906   0.16002
 Alpha virt. eigenvalues --    0.16186   0.17500   0.17714   0.18029   0.19236

 Mulliken charges:
               1
     1  C   -0.196187
     2  N   -0.101584
     3  C   -0.079744
     4  N   -0.296167
     5  C   -0.070286
     6  N   -0.308723
     7  C    0.075550
     8  N   -0.492341
     9  C   -0.174786
    10  C   -0.379068
    11  H    0.122462
    12  H    0.102815
    13  H    0.088087
    14  H    0.088763
    15  H    0.216913
    16  H    0.093190
    17  H    0.055934
    18  H    0.205774
    19  H    0.058085
    20  H    0.226884
    21  H    0.227340
    22  H    0.084293
    23  H    0.102352
    24  H    0.107500
    25  H    0.105858
    26  H    0.137086
 Sum of Mulliken charges =   0.00000

 Dipole moment (field-independent basis, Debye):
    X=              1.1687    Y=              0.4203    Z=              1.0571  Tot=              1.6309
 Quadrupole moment (field-independent basis, Debye-Ang):
   XX=            -62.4062   YY=            -60.4980   ZZ=            -64.1151
   XY=              7.4715   XZ=              0.0310   YZ=             -0.4552

  Exact polarizability: 133.957   4.238  87.262  -5.746   0.235  77.251
 Approx polarizability: 148.324   6.437 134.128  -8.100  -0.543 120.477

                      1                      2                      3
                      A                      A                      A
 Frequencies --     14.8372                39.2220                63.5223
 Red. masses --      2.4566                 3.1892                 3.5600
 Frc consts  --      0.0003                 0.0029                 0.0085
 IR Inten    --      2.0324                 0.9244                 0.2891

                      4                      5                      6
                      A                      A                      A
 Frequencies --     82.3208               108.1888               121.1574
 Red. masses --      3.1860                 2.4148                 2.1075
 Frc consts  --      0.0127                 0.0167                 0.0182
 IR Inten    --      2.1803                 1.6690                 5.0965

                      7                      8                      9
                      A                      A                      A
 Frequencies --    146.1477               214.0249               221.8413
 Red. masses --      2.6648                 2.9247                 1.2566
 Frc consts  --      0.0335                 0.0789                 0.0364
 IR Inten    --      3.1540                 3.8530                 1.0819

                     10                     11                     12
                      A                      A                      A
 Frequencies --    256.3848               282.3790               312.1894
 Red. masses --      2.1256                 1.4329                 3.1002
 Frc consts  --      0.0823                 0.0673                 0.1780
 IR Inten    --     11.5919                19.3647                 2.0763

                     13                     14                     15
                      A                      A                      A
 Frequencies --    417.0151               456.0638               488.4260
 Red. masses --      2.5670                 2.5434                 2.4080
 Frc consts  --      0.2630                 0.3117                 0.3385
 IR Inten    --      5.5348                 6.8537                21.9845

                     16                     17                     18
                      A                      A                      A
 Frequencies --    508.1607               583.9856               726.8434
 Red. masses --      2.6834                 2.5712                 1.3413
 Frc consts  --      0.4083                 0.5166                 0.4175
 IR Inten    --      0.1490                18.6414                 6.3589

                     19                     20                     21
                      A                      A                      A
 Frequencies --    764.1866               789.4437               798.8686
 Red. masses --      1.2877                 1.3022                 1.1760
 Frc consts  --      0.4431                 0.4782                 0.4422
 IR Inten    --     18.7279                 9.0952               122.9400

                     22                     23                     24
                      A                      A                      A
 Frequencies --    859.1442               876.9578               990.3327
 Red. masses --      1.6819                 1.9768                 3.6843
 Frc consts  --      0.7315                 0.8957                 2.1290
 IR Inten    --    155.6318                 9.1295                 4.7505

                     25                     26                     27
                      A                      A                      A
 Frequencies --   1007.7375              1017.3034              1047.4625
 Red. masses --      1.8836                 2.5493                 1.4265
 Frc consts  --      1.1271                 1.5544                 0.9222
 IR Inten    --      5.0694                50.1957                 6.8899

                     28                     29                     30
                      A                      A                      A
 Frequencies --   1051.3418              1070.6954              1087.6147
 Red. masses --      1.3267                 1.3524                 2.3258
 Frc consts  --      0.8640                 0.9135                 1.6209
 IR Inten    --      1.8552                17.5747                12.0060

                     31                     32                     33
                      A                      A                      A
 Frequencies --   1098.6556              1126.8760              1135.9644
 Red. masses --      2.5886                 1.7713                 3.9165
 Frc consts  --      1.8409                 1.3252                 2.9777
 IR Inten    --     45.6008                12.4351                43.0947

                     34                     35                     36
                      A                      A                      A
 Frequencies --   1159.8396              1190.4964              1233.0800
 Red. masses --      4.0038                 1.3824                 1.5819
 Frc consts  --      3.1734                 1.1543                 1.4171
 IR Inten    --    130.6620                 3.7160                24.8684

                     37                     38                     39
                      A                      A                      A
 Frequencies --   1245.2209              1256.7282              1286.5535
 Red. masses --      1.6649                 1.3941                 1.2073
 Frc consts  --      1.5210                 1.2972                 1.1774
 IR Inten    --     11.3112                17.3097                15.8063

                     40                     41                     42
                      A                      A                      A
 Frequencies --   1312.6218              1325.2431              1366.2949
 Red. masses --      1.3084                 1.1849                 1.2547
 Frc consts  --      1.3282                 1.2261                 1.3800
 IR Inten    --     21.4244                11.2742                34.1028

                     43                     44                     45
                      A                      A                      A
 Frequencies --   1384.9755              1404.6191              1422.5091
 Red. masses --      1.3958                 1.2625                 1.2717
 Frc consts  --      1.5774                 1.4676                 1.5162
 IR Inten    --      5.7632                 2.4515                34.7101

                     46                     47                     48
                      A                      A                      A
 Frequencies --   1436.1428              1477.2236              1483.2220
 Red. masses --      1.3691                 1.2530                 1.0839
 Frc consts  --      1.6637                 1.6110                 1.4049
 IR Inten    --      4.5390                96.0157                 2.7642

                     49                     50                     51
                      A                      A                      A
 Frequencies --   1494.4388              1499.6577              1509.4585
 Red. masses --      1.0459                 1.1445                 1.2286
 Frc consts  --      1.3763                 1.5165                 1.6494
 IR Inten    --      5.8039                24.3518                 2.5441

                     52                     53                     54
                      A                      A                      A
 Frequencies --   1511.7188              1517.9248              1535.0915
 Red. masses --      1.0642                 1.1421                 1.0989
 Frc consts  --      1.4328                 1.5504                 1.5257
 IR Inten    --      5.9587                 4.1653                 0.9244

                     55                     56                     57
                      A                      A                      A
 Frequencies --   1660.3381              1754.4691              2792.4244
 Red. masses --      1.0957                 6.7766                 1.0729
 Frc consts  --      1.7796                12.2900                 4.9291
 IR Inten    --     15.9667                31.5336               114.2472

                     58                     59                     60
                      A                      A                      A
 Frequencies --   2895.2473              2921.9108              2949.5614
 Red. masses --      1.0653                 1.0814                 1.0916
 Frc consts  --      5.2615                 5.4394                 5.5956
 IR Inten    --     75.9638                64.3569                49.9341

                     61                     62                     63
                      A                      A                      A
 Frequencies --   3002.1854              3015.3853              3022.8767
 Red. masses --      1.0651                 1.0605                 1.0820
 Frc consts  --      5.6563                 5.6814                 5.8251
 IR Inten    --     50.6530                27.6640                38.0879

                     64                     65                     66
                      A                      A                      A
 Frequencies --   3035.5217              3054.0277              3098.4776
 Red. masses --      1.0405                 1.0978                 1.1000
 Frc consts  --      5.6486                 6.0325                 6.2224
 IR Inten    --     27.0077                28.4384                42.0523

                     67                     68                     69
                      A                      A                      A
 Frequencies --   3129.6181              3134.3189              3486.7899
 Red. masses --      1.1002                 1.1046                 1.0510
 Frc consts  --      6.3489                 6.3936                 7.5283
 IR Inten    --     18.1293                33.8412                 0.4731

                     70                     71                     72
                      A                      A                      A
 Frequencies --   3495.6930              3501.2824              3576.2519
 Red. masses --      1.0721                 1.0731                 1.0908
 Frc consts  --      7.7186                 7.7507                 8.2194
 IR Inten    --      1.4425                 1.2914                 1.6769

 - Thermochemistry -
 -------------------
 Temperature   298.150 Kelvin.  Pressure   1.00000 Atm.
 Atom     1 has atomic number  6 and mass  12.00000

 Molecular mass:   144.13750 amu.
 Principal axes and moments of inertia in atomic units:
                           1         2         3
     Eigenvalues --   343.424944844.124255007.73167
           X            0.99996   0.00893  -0.00060
           Y           -0.00893   0.99992   0.00908
           Z            0.00068  -0.00907   0.99996
 This molecule is an asymmetric top.
 Rotational symmetry number  1.
 Rotational temperatures (Kelvin)      0.25221     0.01788     0.01730
 Rotational constants (GHZ):           5.25513     0.37256     0.36039
 Zero-point vibrational energy     612157.5 (Joules/Mol)
                                  146.30914 (Kcal/Mol)
 Warning -- explicit consideration of  17 degrees of freedom as
           vibrations may cause significant error
 Vibrational temperatures:     21.35    56.43    91.39   118.44   155.66
          (Kelvin)            174.32   210.27   307.93   319.18   368.88
                              406.28   449.17   599.99   656.17   702.74
                              731.13   840.22  1045.77  1099.49  1135.83
                             1149.39  1236.12  1261.75  1424.87  1449.91
                             1463.67  1507.06  1512.65  1540.49  1564.83
                             1580.72  1621.32  1634.40  1668.75  1712.86
                             1774.13  1791.60  1808.15  1851.06  1888.57
                             1906.73  1965.79  1992.67  2020.93  2046.67
                             2066.29  2125.40  2134.03  2150.16  2157.67
                             2171.77  2175.03  2183.96  2208.65  2388.86
                             2524.29  4017.68  4165.62  4203.98  4243.76
                             4319.48  4338.47  4349.25  4367.44  4394.06
                             4458.02  4502.82  4509.59  5016.71  5029.52
                             5037.56  5145.43

 Zero-point correction=                           0.233158 (Hartree/Particle)
 Thermal correction to Energy=                    0.245921
 Thermal correction to Enthalpy=                  0.246865
 Thermal correction to Gibbs Free Energy=         0.191955
 Sum of electronic and zero-point Energies=           -457.029637
 Sum of electronic and thermal Energies=              -457.016874
 Sum of electronic and thermal Enthalpies=            -457.015930
 Sum of electronic and thermal Free Energies=         -457.070841

                     E (Thermal)             CV                S
                      KCal/Mol        Cal/Mol-Kelvin    Cal/Mol-Kelvin
 Total                  154.318             44.392            115.569
 Electronic               0.000              0.000              0.000
 Translational            0.889              2.981             40.808
 Rotational               0.889              2.981             30.500
 Vibrational            152.540             38.430             44.261
 Vibration     1          0.593              1.986              7.227
 Vibration     2          0.594              1.981              5.298
 Vibration     3          0.597              1.972              4.345
 Vibration     4          0.600              1.961              3.835
 Vibration     5          0.606              1.943              3.301
 Vibration     6          0.609              1.932              3.082
 Vibration     7          0.617              1.907              2.722
 Vibration     8          0.644              1.820              2.009
 Vibration     9          0.648              1.808              1.944
 Vibration    10          0.666              1.752              1.686
 Vibration    11          0.681              1.706              1.519
 Vibration    12          0.701              1.650              1.351
 Vibration    13          0.780              1.433              0.902
 Vibration    14          0.814              1.347              0.778
 Vibration    15          0.844              1.276              0.688
 Vibration    16          0.863              1.232              0.638
 Vibration    17          0.941              1.066              0.478

 Optimization completed.
    -- Stationary point found.
 Normal termination of Gaussian 16 at Mon May 31 18:52:11 2021.
