 Gaussian 16, Revision A.03,
 Gaussian 16:  ES64L-G16RevA.03 25-Dec-2016

 -----------------------------
 # opt freq b3lyp/6-31g(2df,p)
 -----------------------------

 -------------------
 Title Card Required
 -------------------
 Symbolic Z-matrix:
 Charge =  0 Multiplicity = 1

 SCF Done:  E(RB3LYP) =  -281.535292695     A.U. after   14 cycles
 SCF Done:  E(RB3LYP) =  -281.537679554     A.U. after   12 cycles
 SCF Done:  E(RB3LYP) =  -281.537737359     A.U. after    9 cycles
 SCF Done:  E(RB3LYP) =  -281.537748293     A.U. after    9 cycles
 SCF Done:  E(RB3LYP) =  -281.537752830     A.U. after    9 cycles
 Optimization completed.
    -- Stationary point found.
 Normal termination of Gaussian 16 at Mon May 31 20:26:16 2021.

 ----------------------------------------------------------------------
 #N Geom=AllCheck Guess=TCheck SCRF=Check GenChk RB3LYP/6-31G(2df,p) Fr
 eq
 ----------------------------------------------------------------------

 Structure from the checkpoint file:  "CdNCNCtN.chk"
 -------------------
 Title Card Required
 -------------------
 Charge =  0 Multiplicity = 1

                         Standard orientation:
 ---------------------------------------------------------------------
 Center     Atomic      Atomic             Coordinates (Angstroms)
 Number     Number       Type             X           Y           Z
 ---------------------------------------------------------------------
      1          6           0        2.769068   -0.160596   -0.000202
      2          7           0        1.641894    0.409129   -0.000144
      3          6           0        0.449567   -0.417851    0.000252
      4          7           0       -0.684469    0.498593    0.000401
      5          6           0       -1.944400    0.093996    0.000158
      6          7           0       -3.043856   -0.286906   -0.000413
      7          1           0        3.669419    0.453752   -0.000461
      8          1           0        2.915117   -1.249123    0.000051
      9          1           0        0.415898   -1.061646    0.890170
     10          1           0        0.415532   -1.061930   -0.889451
     11          1           0       -0.456353    1.479941   -0.000463
 ---------------------------------------------------------------------

 SCF Done:  E(RB3LYP) =  -281.537752830     A.U. after    1 cycles

 The electronic state is 1-A.
 Alpha  occ. eigenvalues --  -14.37905 -14.36302 -14.30650 -10.27406 -10.25362
 Alpha  occ. eigenvalues --  -10.23294  -0.98464  -0.93574  -0.86969  -0.73512
 Alpha  occ. eigenvalues --   -0.62370  -0.59702  -0.52602  -0.49454  -0.48233
 Alpha  occ. eigenvalues --   -0.45124  -0.38061  -0.34527  -0.33207  -0.31855
 Alpha  occ. eigenvalues --   -0.29016  -0.24479
 Alpha virt. eigenvalues --   -0.04342   0.03592   0.07274   0.09461   0.09800
 Alpha virt. eigenvalues --    0.11068   0.14650   0.16439   0.17966   0.20707
 Alpha virt. eigenvalues --    0.24634   0.27927   0.36286   0.42584   0.45223

 Mulliken charges:
               1
     1  C   -0.184678
     2  N   -0.127032
     3  C   -0.083088
     4  N   -0.394782
     5  C    0.331906
     6  N   -0.343607
     7  H    0.137773
     8  H    0.117039
     9  H    0.135077
    10  H    0.135068
    11  H    0.276325
 Sum of Mulliken charges =  -0.00000

 Dipole moment (field-independent basis, Debye):
    X=              5.4961    Y=             -0.0565    Z=              0.0000  Tot=              5.4964
 Quadrupole moment (field-independent basis, Debye-Ang):
   XX=            -44.9400   YY=            -32.4189   ZZ=            -35.3002
   XY=             -5.1968   XZ=             -0.0021   YZ=             -0.0025

  Exact polarizability:  80.801   1.492  41.157   0.003  -0.001  29.882
 Approx polarizability: 113.203   5.010  63.269   0.014   0.002  44.362

 ******    2 imaginary frequencies (negative Signs) ******

                      1                      2                      3
                      A                      A                      A
 Frequencies --   -263.5962               -61.3027                73.3191
 Red. masses --      1.4290                 2.8542                 2.8351
 Frc consts  --      0.0585                 0.0063                 0.0090
 IR Inten    --     72.6719                 4.2306                34.1868

                      4                      5                      6
                      A                      A                      A
 Frequencies --    146.8002               331.7409               447.8795
 Red. masses --      5.1865                 3.8907                 4.6006
 Frc consts  --      0.0659                 0.2523                 0.5437
 IR Inten    --     11.2080                 3.7815                 1.7196

                      7                      8                      9
                      A                      A                      A
 Frequencies --    543.2802               593.5703               663.9934
 Red. masses --      8.6751                 5.6638                 1.1125
 Frc consts  --      1.5086                 1.1757                 0.2890
 IR Inten    --      4.3366                 7.3603                 0.2400

                     10                     11                     12
                      A                      A                      A
 Frequencies --    981.7498              1068.9441              1069.2533
 Red. masses --      3.9336                 5.7861                 1.4151
 Frc consts  --      2.2338                 3.8953                 0.9532
 IR Inten    --      5.0404                14.9909                16.7068

                     13                     14                     15
                      A                      A                      A
 Frequencies --   1081.1315              1204.2016              1236.1421
 Red. masses --      1.5131                 2.2529                 1.7924
 Frc consts  --      1.0420                 1.9248                 1.6137
 IR Inten    --      2.0975                35.6620                18.5977

                     16                     17                     18
                      A                      A                      A
 Frequencies --   1254.4115              1374.2432              1446.7490
 Red. masses --      1.0489                 1.3544                 1.4766
 Frc consts  --      0.9725                 1.5070                 1.8209
 IR Inten    --      0.6300                 0.1602               160.9419

                     19                     20                     21
                      A                      A                      A
 Frequencies --   1505.1732              1507.6903              1759.5148
 Red. masses --      1.1454                 1.0776                 6.7430
 Frc consts  --      1.5290                 1.4433                12.2996
 IR Inten    --     14.5924                16.4881                38.5125

                     22                     23                     24
                      A                      A                      A
 Frequencies --   2345.5911              2991.5451              3019.0914
 Red. masses --     12.3884                 1.0545                 1.0654
 Frc consts  --     40.1577                 5.5603                 5.7217
 IR Inten    --    166.9947                23.5398                50.2440

                     25                     26                     27
                      A                      A                      A
 Frequencies --   3028.9479              3148.9767              3637.6187
 Red. masses --      1.1088                 1.1063                 1.0760
 Frc consts  --      5.9937                 6.4637                 8.3885
 IR Inten    --     25.9581                20.1503                73.7703

 - Thermochemistry -
 -------------------
 Temperature   298.150 Kelvin.  Pressure   1.00000 Atm.
 Atom     1 has atomic number  6 and mass  12.00000

 Molecular mass:    83.04835 amu.
 Principal axes and moments of inertia in atomic units:
                           1         2         3
     Eigenvalues --    61.702241205.628501255.93245
           X            0.99994  -0.01133  -0.00000
           Y            0.01133   0.99994  -0.00010
           Z            0.00000   0.00010   1.00000
 This molecule is an asymmetric top.
 Rotational symmetry number  1.
 Rotational temperatures (Kelvin)      1.40374     0.07184     0.06896
 Rotational constants (GHZ):          29.24920     1.49693     1.43697
    2 imaginary frequencies ignored.
 Zero-point vibrational energy     218088.6 (Joules/Mol)
                                   52.12442 (Kcal/Mol)
 Warning -- explicit consideration of   6 degrees of freedom as
           vibrations may cause significant error
 Vibrational temperatures:    105.49   211.21   477.30   644.40   781.66
          (Kelvin)            854.02   955.34  1412.52  1537.97  1538.42
                             1555.51  1732.58  1778.53  1804.82  1977.23
                             2081.55  2165.61  2169.23  2531.55  3374.78
                             4304.17  4343.80  4357.98  4530.68  5233.72

 Zero-point correction=                           0.083066 (Hartree/Particle)
 Thermal correction to Energy=                    0.088660
 Thermal correction to Enthalpy=                  0.089604
 Thermal correction to Gibbs Free Energy=         0.053550
 Sum of electronic and zero-point Energies=           -281.454687
 Sum of electronic and thermal Energies=              -281.449093
 Sum of electronic and thermal Enthalpies=            -281.448149
 Sum of electronic and thermal Free Energies=         -281.484203

                     E (Thermal)             CV                S
                      KCal/Mol        Cal/Mol-Kelvin    Cal/Mol-Kelvin
 Total                   55.635             18.163             75.883
 Electronic               0.000              0.000              0.000
 Translational            0.889              2.981             39.164
 Rotational               0.889              2.981             26.038
 Vibrational             53.858             12.201             10.681
 Vibration     1          0.599              1.967              4.062
 Vibration     2          0.617              1.906              2.713
 Vibration     3          0.714              1.612              1.252
 Vibration     4          0.807              1.366              0.802
 Vibration     5          0.898              1.154              0.558
 Vibration     6          0.951              1.045              0.461

 Optimization completed.
    -- Stationary point found.
 Normal termination of Gaussian 16 at Mon May 31 20:37:00 2021.
