 Gaussian 16, Revision A.03,
 Gaussian 16:  ES64L-G16RevA.03 25-Dec-2016

 -----------------------------
 # opt freq b3lyp/6-31g(2df,p)
 -----------------------------

 -------------------
 Title Card Required
 -------------------
 Symbolic Z-matrix:
 Charge =  0 Multiplicity = 1

 SCF Done:  E(RB3LYP) =  -400.647216700     A.U. after   13 cycles
 SCF Done:  E(RB3LYP) =  -400.657744010     A.U. after   14 cycles
 SCF Done:  E(RB3LYP) =  -400.665133498     A.U. after   11 cycles
 SCF Done:  E(RB3LYP) =  -400.666981525     A.U. after   12 cycles
 SCF Done:  E(RB3LYP) =  -400.668182872     A.U. after   13 cycles
 SCF Done:  E(RB3LYP) =  -400.670396074     A.U. after   13 cycles
 SCF Done:  E(RB3LYP) =  -400.672446185     A.U. after   13 cycles
 SCF Done:  E(RB3LYP) =  -400.673852585     A.U. after   13 cycles
 SCF Done:  E(RB3LYP) =  -400.676179656     A.U. after   13 cycles
 SCF Done:  E(RB3LYP) =  -400.681607518     A.U. after   15 cycles
 SCF Done:  E(RB3LYP) =  -400.688069245     A.U. after   12 cycles
 SCF Done:  E(RB3LYP) =  -400.688622089     A.U. after   13 cycles
 SCF Done:  E(RB3LYP) =  -400.689287921     A.U. after   13 cycles
 SCF Done:  E(RB3LYP) =  -400.689839459     A.U. after   13 cycles
 SCF Done:  E(RB3LYP) =  -400.689995456     A.U. after   11 cycles
 SCF Done:  E(RB3LYP) =  -400.690023208     A.U. after   10 cycles
 SCF Done:  E(RB3LYP) =  -400.690028115     A.U. after    8 cycles
 SCF Done:  E(RB3LYP) =  -400.690029945     A.U. after    8 cycles
 SCF Done:  E(RB3LYP) =  -400.690030279     A.U. after    7 cycles
 Optimization completed.
    -- Stationary point found.
 Normal termination of Gaussian 16 at Tue Jun  1 23:56:11 2021.

 ----------------------------------------------------------------------
 #N Geom=AllCheck Guess=TCheck SCRF=Check GenChk RB3LYP/6-31G(2df,p) Fr
 eq
 ----------------------------------------------------------------------

 Structure from the checkpoint file:  "CdNCNpCdCCpCN.chk"
 -------------------
 Title Card Required
 -------------------
 Charge =  0 Multiplicity = 1

                         Standard orientation:
 ---------------------------------------------------------------------
 Center     Atomic      Atomic             Coordinates (Angstroms)
 Number     Number       Type             X           Y           Z
 ---------------------------------------------------------------------
      1          6           0       -0.864117   -2.576268    0.489803
      2          7           0       -1.307114   -1.416807    0.257801
      3          6           0       -0.843494   -0.737443   -0.961617
      4          7           0       -0.334135    0.581842   -0.702915
      5          6           0        0.966402    0.749982   -0.227928
      6          6           0        1.929343   -0.164747   -0.069534
      7          6           0        3.327773    0.182276    0.354201
      8          6           0       -1.302997    1.601654   -0.357109
      9          7           0       -1.613948    1.607328    1.074013
     10          1           0       -1.187447   -3.109498    1.384953
     11          1           0       -0.157536   -3.101490   -0.169583
     12          1           0       -1.717189   -0.643649   -1.617761
     13          1           0       -0.077343   -1.321713   -1.492702
     14          1           0        1.185221    1.791341   -0.003584
     15          1           0        1.728417   -1.216585   -0.249509
     16          1           0        3.433496    1.257059    0.534119
     17          1           0        4.069868   -0.099097   -0.405245
     18          1           0        3.615009   -0.337895    1.277525
     19          1           0       -2.175977    1.438223   -1.010635
     20          1           0       -0.886250    2.584448   -0.612601
     21          1           0       -2.007006    0.702884    1.322579
     22          1           0       -2.314351    2.316714    1.273258
 ---------------------------------------------------------------------

 SCF Done:  E(RB3LYP) =  -400.690030279     A.U. after    1 cycles

 The electronic state is 1-A.
 Alpha  occ. eigenvalues --  -14.33551 -14.33435 -14.29639 -10.23968 -10.23245
 Alpha  occ. eigenvalues --  -10.22965 -10.19519 -10.16677 -10.15444  -0.95891
 Alpha  occ. eigenvalues --   -0.90884  -0.85214  -0.76345  -0.71156  -0.67736
 Alpha  occ. eigenvalues --   -0.61508  -0.59243  -0.54331  -0.51071  -0.49473
 Alpha  occ. eigenvalues --   -0.46604  -0.45454  -0.45263  -0.43056  -0.40278
 Alpha  occ. eigenvalues --   -0.39302  -0.38968  -0.36870  -0.36555  -0.34108
 Alpha  occ. eigenvalues --   -0.31574  -0.30094  -0.26083  -0.23114  -0.18505
 Alpha virt. eigenvalues --   -0.01334   0.05629   0.09547   0.09765   0.11799
 Alpha virt. eigenvalues --    0.12681   0.13202   0.14671   0.16391   0.16695
 Alpha virt. eigenvalues --    0.17487   0.18156   0.18653   0.19088   0.21260

 Mulliken charges:
               1
     1  C   -0.192964
     2  N   -0.084940
     3  C   -0.149195
     4  N   -0.036419
     5  C    0.077804
     6  C   -0.139249
     7  C   -0.420621
     8  C   -0.137636
     9  N   -0.497309
    10  H    0.124832
    11  H    0.102787
    12  H    0.114220
    13  H    0.100635
    14  H    0.093597
    15  H    0.060121
    16  H    0.112195
    17  H    0.112179
    18  H    0.114509
    19  H    0.082760
    20  H    0.106124
    21  H    0.238780
    22  H    0.217790
 Sum of Mulliken charges =  -0.00000

 Dipole moment (field-independent basis, Debye):
    X=             -1.2227    Y=             -0.9311    Z=             -0.9184  Tot=              1.7904
 Quadrupole moment (field-independent basis, Debye-Ang):
   XX=            -54.0711   YY=            -48.3311   ZZ=            -57.7933
   XY=             -2.3619   XZ=              0.5566   YZ=             -0.9540

  Exact polarizability: 103.613  -9.471  98.779   1.741  -3.648  68.828
 Approx polarizability: 138.946 -22.866 144.597   4.881  -6.841 102.423

                      1                      2                      3
                      A                      A                      A
 Frequencies --     68.0185                84.9022                92.1705
 Red. masses --      2.8673                 3.2742                 3.4178
 Frc consts  --      0.0078                 0.0139                 0.0171
 IR Inten    --      2.8548                 1.0085                 5.0444

                      4                      5                      6
                      A                      A                      A
 Frequencies --    115.4360               139.6457               196.3543
 Red. masses --      2.0821                 2.4577                 1.5902
 Frc consts  --      0.0163                 0.0282                 0.0361
 IR Inten    --      1.9272                 7.2107                 0.8316

                      7                      8                      9
                      A                      A                      A
 Frequencies --    214.0529               283.3333               296.5909
 Red. masses --      1.9267                 1.5115                 1.6117
 Frc consts  --      0.0520                 0.0715                 0.0835
 IR Inten    --      1.4117                24.9940                25.9494

                     10                     11                     12
                      A                      A                      A
 Frequencies --    346.7441               362.3701               420.5360
 Red. masses --      3.0476                 2.5922                 2.3024
 Frc consts  --      0.2159                 0.2005                 0.2399
 IR Inten    --     10.1064                 0.3196                 1.2490

                     13                     14                     15
                      A                      A                      A
 Frequencies --    527.8274               532.7236               589.5007
 Red. masses --      2.3204                 3.7637                 2.6844
 Frc consts  --      0.3809                 0.6293                 0.5496
 IR Inten    --     18.3025                 6.7220                 8.7365

                     16                     17                     18
                      A                      A                      A
 Frequencies --    710.3342               792.2424               868.8780
 Red. masses --      1.3781                 1.7369                 1.4726
 Frc consts  --      0.4097                 0.6423                 0.6550
 IR Inten    --      3.7811                 8.1992                64.7808

                     19                     20                     21
                      A                      A                      A
 Frequencies --    898.8743               939.0228               949.1827
 Red. masses --      1.8971                 3.5480                 1.6857
 Frc consts  --      0.9031                 1.8433                 0.8948
 IR Inten    --     67.6450                24.2421                 1.8775

                     22                     23                     24
                      A                      A                      A
 Frequencies --    977.0874              1024.5331              1055.6565
 Red. masses --      1.1611                 2.9358                 1.9408
 Frc consts  --      0.6531                 1.8156                 1.2743
 IR Inten    --     33.7381                21.5831                25.0108

                     25                     26                     27
                      A                      A                      A
 Frequencies --   1062.0507              1063.6957              1071.1149
 Red. masses --      1.4249                 1.6836                 1.3950
 Frc consts  --      0.9470                 1.1224                 0.9430
 IR Inten    --      0.1679                12.8722                16.0488

                     28                     29                     30
                      A                      A                      A
 Frequencies --   1114.6382              1186.0624              1199.7304
 Red. masses --      2.5819                 1.7170                 1.4725
 Frc consts  --      1.8900                 1.4231                 1.2487
 IR Inten    --     14.8457                19.3530                78.3971

                     31                     32                     33
                      A                      A                      A
 Frequencies --   1244.8385              1290.3951              1313.4769
 Red. masses --      1.7895                 1.3893                 1.3115
 Frc consts  --      1.6339                 1.3630                 1.3331
 IR Inten    --     49.9658                43.8072                12.6484

                     34                     35                     36
                      A                      A                      A
 Frequencies --   1339.0324              1389.1820              1395.1163
 Red. masses --      1.3228                 1.4044                 1.3088
 Frc consts  --      1.3974                 1.5968                 1.5009
 IR Inten    --     12.0968                22.7742                55.2780

                     37                     38                     39
                      A                      A                      A
 Frequencies --   1412.8133              1422.4201              1447.5764
 Red. masses --      1.4816                 1.4678                 1.2587
 Frc consts  --      1.7425                 1.7497                 1.5540
 IR Inten    --     76.7641                12.8966                27.4660

                     40                     41                     42
                      A                      A                      A
 Frequencies --   1478.5333              1481.4521              1496.5818
 Red. masses --      1.0452                 1.0839                 1.1429
 Frc consts  --      1.3463                 1.4016                 1.5082
 IR Inten    --      3.1139                 8.1765                11.8669

                     43                     44                     45
                      A                      A                      A
 Frequencies --   1501.4487              1515.4911              1640.6882
 Red. masses --      1.0577                 1.1101                 1.0938
 Frc consts  --      1.4048                 1.5022                 1.7348
 IR Inten    --      6.9969                 2.5482                39.9617

                     46                     47                     48
                      A                      A                      A
 Frequencies --   1736.7581              1744.4498              2956.5891
 Red. masses --      5.4751                 6.3314                 1.0691
 Frc consts  --      9.7303                11.3518                 5.5063
 IR Inten    --     92.4594                39.3056                83.6922

                     49                     50                     51
                      A                      A                      A
 Frequencies --   2988.0204              2997.4510              3004.3810
 Red. masses --      1.0621                 1.0650                 1.0381
 Frc consts  --      5.5871                 5.6380                 5.5209
 IR Inten    --     41.6298                52.1869                70.3528

                     52                     53                     54
                      A                      A                      A
 Frequencies --   3031.0614              3044.1049              3050.1858
 Red. masses --      1.0922                 1.0991                 1.1003
 Frc consts  --      5.9120                 6.0009                 6.0311
 IR Inten    --     45.5191                33.0912                25.7252

                     55                     56                     57
                      A                      A                      A
 Frequencies --   3091.5270              3133.1555              3156.4061
 Red. masses --      1.0974                 1.1040                 1.0902
 Frc consts  --      6.1797                 6.3854                 6.3994
 IR Inten    --     20.2510                30.2413                 4.1636

                     58                     59                     60
                      A                      A                      A
 Frequencies --   3165.9133              3474.4270              3564.6654
 Red. masses --      1.0857                 1.0486                 1.0932
 Frc consts  --      6.4117                 7.4579                 8.1846
 IR Inten    --     40.2982                12.7191                 5.2537

 - Thermochemistry -
 -------------------
 Temperature   298.150 Kelvin.  Pressure   1.00000 Atm.
 Atom     1 has atomic number  6 and mass  12.00000

 Molecular mass:   127.11095 amu.
 Principal axes and moments of inertia in atomic units:
                           1         2         3
     Eigenvalues --  1041.246411463.289992108.31427
           X            0.99937  -0.03437   0.00924
           Y            0.03434   0.99940   0.00337
           Z           -0.00935  -0.00305   0.99995
 This molecule is an asymmetric top.
 Rotational symmetry number  1.
 Warning -- assumption of classical behavior for rotation
           may cause significant error
 Rotational temperatures (Kelvin)      0.08318     0.05919     0.04108
 Rotational constants (GHZ):           1.73325     1.23334     0.85601
 Zero-point vibrational energy     506567.4 (Joules/Mol)
                                  121.07251 (Kcal/Mol)
 Warning -- explicit consideration of  15 degrees of freedom as
           vibrations may cause significant error
 Vibrational temperatures:     97.86   122.16   132.61   166.09   200.92
          (Kelvin)            282.51   307.97   407.65   426.73   498.89
                              521.37   605.06   759.43   766.47   848.16
                             1022.01  1139.86  1250.12  1293.28  1351.04
                             1365.66  1405.81  1474.07  1518.85  1528.05
                             1530.42  1541.10  1603.72  1706.48  1726.14
                             1791.05  1856.59  1889.80  1926.57  1998.72
                             2007.26  2032.72  2046.55  2082.74  2127.28
                             2131.48  2153.25  2160.25  2180.45  2360.58
                             2498.81  2509.87  4253.87  4299.09  4312.66
                             4322.63  4361.02  4379.79  4388.54  4448.02
                             4507.91  4541.36  4555.04  4998.93  5128.76

 Zero-point correction=                           0.192941 (Hartree/Particle)
 Thermal correction to Energy=                    0.203753
 Thermal correction to Enthalpy=                  0.204697
 Thermal correction to Gibbs Free Energy=         0.156494
 Sum of electronic and zero-point Energies=           -400.497089
 Sum of electronic and thermal Energies=              -400.486278
 Sum of electronic and thermal Enthalpies=            -400.485334
 Sum of electronic and thermal Free Energies=         -400.533536

                     E (Thermal)             CV                S
                      KCal/Mol        Cal/Mol-Kelvin    Cal/Mol-Kelvin
 Total                  127.857             38.420            101.451
 Electronic               0.000              0.000              0.000
 Translational            0.889              2.981             40.433
 Rotational               0.889              2.981             29.553
 Vibrational            126.079             32.459             31.465
 Vibration     1          0.598              1.969              4.210
 Vibration     2          0.601              1.960              3.774
 Vibration     3          0.602              1.955              3.613
 Vibration     4          0.608              1.937              3.175
 Vibration     5          0.615              1.914              2.809
 Vibration     6          0.636              1.845              2.167
 Vibration     7          0.644              1.820              2.009
 Vibration     8          0.682              1.705              1.513
 Vibration     9          0.690              1.680              1.436
 Vibration    10          0.725              1.582              1.181
 Vibration    11          0.736              1.550              1.112
 Vibration    12          0.783              1.426              0.890
 Vibration    13          0.883              1.188              0.592
 Vibration    14          0.888              1.178              0.581
 Vibration    15          0.947              1.054              0.468

                           ! Non-Optimized Parameters !
 Normal termination of Gaussian 16 at Wed Jun  2 00:29:58 2021.
