 Gaussian 16, Revision A.03,
 Gaussian 16:  ES64L-G16RevA.03 25-Dec-2016

 -----------------------------
 # opt freq b3lyp/6-31g(2df,p)
 -----------------------------

 -------------------
 Title Card Required
 -------------------
 Symbolic Z-matrix:
 Charge =  0 Multiplicity = 1

 SCF Done:  E(RB3LYP) =  -475.921158899     A.U. after   14 cycles
 SCF Done:  E(RB3LYP) =  -475.928170340     A.U. after   11 cycles
 SCF Done:  E(RB3LYP) =  -475.929489369     A.U. after   12 cycles
 SCF Done:  E(RB3LYP) =  -475.929556887     A.U. after   13 cycles
 SCF Done:  E(RB3LYP) =  -475.930119653     A.U. after   12 cycles
 SCF Done:  E(RB3LYP) =  -475.930418498     A.U. after   11 cycles
 SCF Done:  E(RB3LYP) =  -475.930535539     A.U. after   11 cycles
 SCF Done:  E(RB3LYP) =  -475.930614644     A.U. after   10 cycles
 SCF Done:  E(RB3LYP) =  -475.930763298     A.U. after   13 cycles
 SCF Done:  E(RB3LYP) =  -475.930861364     A.U. after   12 cycles
 SCF Done:  E(RB3LYP) =  -475.930012863     A.U. after   12 cycles
 SCF Done:  E(RB3LYP) =  -475.933069160     A.U. after   12 cycles
 SCF Done:  E(RB3LYP) =  -475.933464266     A.U. after   13 cycles
 SCF Done:  E(RB3LYP) =  -475.933607708     A.U. after   12 cycles
 SCF Done:  E(RB3LYP) =  -475.933638118     A.U. after   10 cycles
 SCF Done:  E(RB3LYP) =  -475.933649074     A.U. after   10 cycles
 SCF Done:  E(RB3LYP) =  -475.933651543     A.U. after    9 cycles
 SCF Done:  E(RB3LYP) =  -475.933651945     A.U. after    8 cycles
 SCF Done:  E(RB3LYP) =  -475.933651995     A.U. after    7 cycles
 Optimization completed.
    -- Stationary point found.
 Normal termination of Gaussian 16 at Tue Jun  1 06:41:49 2021.

 ----------------------------------------------------------------------
 #N Geom=AllCheck Guess=TCheck SCRF=Check GenChk RB3LYP/6-31G(2df,p) Fr
 eq
 ----------------------------------------------------------------------

 Structure from the checkpoint file:  "CdNCCCpdOpCNCN.chk"
 -------------------
 Title Card Required
 -------------------
 Charge =  0 Multiplicity = 1

                         Standard orientation:
 ---------------------------------------------------------------------
 Center     Atomic      Atomic             Coordinates (Angstroms)
 Number     Number       Type             X           Y           Z
 ---------------------------------------------------------------------
      1          6           0        4.782302   -0.080276    0.482359
      2          7           0        3.848466   -0.394811   -0.308248
      3          6           0        2.624858    0.388465   -0.261832
      4          6           0        1.431545   -0.533846   -0.004714
      5          6           0        0.094978    0.179828   -0.085657
      6          8           0        0.006429    1.381027   -0.210139
      7          6           0       -1.147251   -0.702753   -0.040929
      8          7           0       -2.325613    0.069069    0.267651
      9          6           0       -3.574694   -0.537045   -0.144834
     10          7           0       -4.653051    0.377868    0.199448
     11          1           0        5.712290   -0.650594    0.468771
     12          1           0        4.721801    0.752286    1.199141
     13          1           0        2.492317    0.869515   -1.237712
     14          1           0        2.654992    1.189106    0.492812
     15          1           0        1.510918   -0.994391    0.989743
     16          1           0        1.440539   -1.372103   -0.712735
     17          1           0       -0.996881   -1.512517    0.687177
     18          1           0       -1.183528   -1.204209   -1.033050
     19          1           0       -2.235166    0.998902   -0.131329
     20          1           0       -3.637510   -1.528543    0.340969
     21          1           0       -3.632152   -0.720551   -1.235883
     22          1           0       -4.717586    0.456471    1.210014
     23          1           0       -5.540506    0.017292   -0.135125
 ---------------------------------------------------------------------

 SCF Done:  E(RB3LYP) =  -475.933651995     A.U. after    1 cycles

 The electronic state is 1-A.
 Alpha  occ. eigenvalues --  -19.13711 -14.33125 -14.30734 -14.30700 -10.27467
 Alpha  occ. eigenvalues --  -10.22862 -10.22402 -10.21697 -10.21186 -10.19799
 Alpha  occ. eigenvalues --   -1.04811  -0.92252  -0.92019  -0.85259  -0.78340
 Alpha  occ. eigenvalues --   -0.71837  -0.66002  -0.61899  -0.57829  -0.53747
 Alpha  occ. eigenvalues --   -0.50783  -0.49173  -0.48966  -0.47367  -0.46100
 Alpha  occ. eigenvalues --   -0.44842  -0.43828  -0.41641  -0.39884  -0.39517
 Alpha  occ. eigenvalues --   -0.38288  -0.37720  -0.36009  -0.34950  -0.30702
 Alpha  occ. eigenvalues --   -0.25829  -0.25119  -0.24078  -0.22128
 Alpha virt. eigenvalues --   -0.01494  -0.00790   0.08235   0.08950   0.10694
 Alpha virt. eigenvalues --    0.12289   0.13249   0.14622   0.14788   0.15387
 Alpha virt. eigenvalues --    0.16392   0.17452   0.17768   0.18543   0.19146

 Mulliken charges:
               1
     1  C   -0.204137
     2  N   -0.092866
     3  C   -0.154101
     4  C   -0.293442
     5  C    0.367943
     6  O   -0.306517
     7  C   -0.230724
     8  N   -0.282730
     9  C   -0.077652
    10  N   -0.510205
    11  H    0.119958
    12  H    0.100786
    13  H    0.127403
    14  H    0.102483
    15  H    0.131278
    16  H    0.135472
    17  H    0.114299
    18  H    0.102925
    19  H    0.236746
    20  H    0.078592
    21  H    0.078544
    22  H    0.229787
    23  H    0.226158
 Sum of Mulliken charges =  -0.00000

 Dipole moment (field-independent basis, Debye):
    X=             -0.1203    Y=             -2.2436    Z=              0.8848  Tot=              2.4147
 Quadrupole moment (field-independent basis, Debye-Ang):
   XX=            -50.5307   YY=            -64.8339   ZZ=            -59.5090
   XY=              7.6452   XZ=              3.9421   YZ=             -0.0063

  Exact polarizability: 128.161  -2.287  78.755   7.684   3.399  70.523
 Approx polarizability: 140.880  -3.110 129.179  12.939   6.060 112.993

                      1                      2                      3
                      A                      A                      A
 Frequencies --     32.3893                50.3749                63.0983
 Red. masses --      4.2251                 2.2957                 3.7320
 Frc consts  --      0.0026                 0.0034                 0.0088
 IR Inten    --      0.4918                 5.9241                 0.4623

                      4                      5                      6
                      A                      A                      A
 Frequencies --     83.5408                98.2313               127.9291
 Red. masses --      3.3538                 2.3511                 2.7327
 Frc consts  --      0.0138                 0.0134                 0.0264
 IR Inten    --      0.9977                 1.5442                 2.8136

                      7                      8                      9
                      A                      A                      A
 Frequencies --    146.7471               199.4185               260.8127
 Red. masses --      2.9953                 2.8493                 2.5174
 Frc consts  --      0.0380                 0.0668                 0.1009
 IR Inten    --      6.7414                20.4857                 6.8523

                     10                     11                     12
                      A                      A                      A
 Frequencies --    291.4023               334.9943               364.0545
 Red. masses --      1.6214                 3.9545                 3.7351
 Frc consts  --      0.0811                 0.2615                 0.2917
 IR Inten    --     22.6890                19.5776                 1.1380

                     13                     14                     15
                      A                      A                      A
 Frequencies --    472.0230               477.5710               534.4379
 Red. masses --      2.0545                 2.5993                 2.8443
 Frc consts  --      0.2697                 0.3493                 0.4787
 IR Inten    --      0.7647                18.5368                10.8765

                     16                     17                     18
                      A                      A                      A
 Frequencies --    683.7296               727.1961               751.4805
 Red. masses --      3.5483                 1.3135                 1.3384
 Frc consts  --      0.9773                 0.4093                 0.4453
 IR Inten    --      5.2902                 4.6703                 3.4041

                     19                     20                     21
                      A                      A                      A
 Frequencies --    801.9192               859.4625               882.2003
 Red. masses --      1.3461                 1.2622                 3.3107
 Frc consts  --      0.5100                 0.5493                 1.5181
 IR Inten    --     57.0522               149.4443                15.6683

                     22                     23                     24
                      A                      A                      A
 Frequencies --    924.0560               972.9889               999.8339
 Red. masses --      1.5198                 1.6463                 2.5703
 Frc consts  --      0.7646                 0.9183                 1.5139
 IR Inten    --      0.8704                 8.9953                13.2967

                     25                     26                     27
                      A                      A                      A
 Frequencies --   1039.1249              1065.3571              1080.2674
 Red. masses --      3.0026                 1.3570                 2.7216
 Frc consts  --      1.9102                 0.9075                 1.8712
 IR Inten    --     25.8399                15.6750                 3.1262

                     28                     29                     30
                      A                      A                      A
 Frequencies --   1085.9895              1102.1967              1170.7411
 Red. masses --      2.0630                 2.2655                 1.3321
 Frc consts  --      1.4335                 1.6215                 1.0758
 IR Inten    --      0.3580                63.9339                 9.9793

                     31                     32                     33
                      A                      A                      A
 Frequencies --   1183.9321              1187.1012              1213.1745
 Red. masses --      1.8269                 2.8591                 1.2954
 Frc consts  --      1.5088                 2.3738                 1.1233
 IR Inten    --     23.8254                72.2056                 7.7099

                     34                     35                     36
                      A                      A                      A
 Frequencies --   1245.7596              1262.9387              1300.9750
 Red. masses --      1.5993                 1.3322                 1.2082
 Frc consts  --      1.4623                 1.2519                 1.2049
 IR Inten    --     18.1560                 3.0118                 9.7583

                     37                     38                     39
                      A                      A                      A
 Frequencies --   1305.8202              1326.9574              1365.6308
 Red. masses --      1.2157                 1.4432                 1.4246
 Frc consts  --      1.2214                 1.4972                 1.5653
 IR Inten    --      4.3232                 8.5738                 2.3198

                     40                     41                     42
                      A                      A                      A
 Frequencies --   1397.1405              1440.6500              1450.9439
 Red. masses --      1.6061                 1.3432                 1.0853
 Frc consts  --      1.8471                 1.6425                 1.3462
 IR Inten    --     52.9666                25.9776                 9.9216

                     43                     44                     45
                      A                      A                      A
 Frequencies --   1482.6400              1484.5776              1494.1118
 Red. masses --      1.2957                 1.0873                 1.1476
 Frc consts  --      1.6781                 1.4120                 1.5094
 IR Inten    --     85.2989                 0.8782                44.4427

                     46                     47                     48
                      A                      A                      A
 Frequencies --   1502.8558              1540.1936              1642.5213
 Red. masses --      1.1489                 1.0878                 1.1004
 Frc consts  --      1.5289                 1.5204                 1.7492
 IR Inten    --     12.7990                 1.8129                30.2234

                     49                     50                     51
                      A                      A                      A
 Frequencies --   1746.1180              1803.2137              2868.0064
 Red. masses --      6.6370                10.8571                 1.0731
 Frc consts  --     11.9226                20.7998                 5.2008
 IR Inten    --     22.4570               113.7381                53.0186

                     52                     53                     54
                      A                      A                      A
 Frequencies --   2905.7157              2925.1054              2988.5364
 Red. masses --      1.0636                 1.0948                 1.0667
 Frc consts  --      5.2912                 5.5191                 5.6131
 IR Inten    --    103.7040                88.3261                15.6156

                     55                     56                     57
                      A                      A                      A
 Frequencies --   2995.7065              3013.6106              3026.2445
 Red. masses --      1.0651                 1.0796                 1.0658
 Frc consts  --      5.6317                 5.7767                 5.7510
 IR Inten    --     62.2037                25.1472                17.6044

                     58                     59                     60
                      A                      A                      A
 Frequencies --   3055.5067              3071.8368              3132.9025
 Red. masses --      1.0907                 1.0990                 1.1037
 Frc consts  --      5.9994                 6.1100                 6.3825
 IR Inten    --      3.3218                21.7524                33.6668

                     61                     62                     63
                      A                      A                      A
 Frequencies --   3497.8342              3523.9938              3584.5160
 Red. masses --      1.0492                 1.0729                 1.0925
 Frc consts  --      7.5629                 7.8502                 8.2706
 IR Inten    --      0.2086                15.7158                 0.4947

 - Thermochemistry -
 -------------------
 Temperature   298.150 Kelvin.  Pressure   1.00000 Atm.
 Atom     1 has atomic number  6 and mass  12.00000

 Molecular mass:   143.10586 amu.
 Principal axes and moments of inertia in atomic units:
                           1         2         3
     Eigenvalues --   288.693874696.030124861.95661
           X            0.99997   0.00664   0.00491
           Y           -0.00675   0.99970   0.02367
           Z           -0.00475  -0.02370   0.99971
 This molecule is an asymmetric top.
 Rotational symmetry number  1.
 Rotational temperatures (Kelvin)      0.30002     0.01844     0.01781
 Rotational constants (GHZ):           6.25140     0.38431     0.37120
 Zero-point vibrational energy     518284.1 (Joules/Mol)
                                  123.87288 (Kcal/Mol)
 Warning -- explicit consideration of  15 degrees of freedom as
           vibrations may cause significant error
 Vibrational temperatures:     46.60    72.48    90.78   120.20   141.33
          (Kelvin)            184.06   211.14   286.92   375.25   419.26
                              481.98   523.79   679.14   687.12   768.94
                              983.73  1046.27  1081.21  1153.78  1236.57
                             1269.29  1329.51  1399.91  1438.54  1495.07
                             1532.81  1554.26  1562.50  1585.82  1684.44
                             1703.41  1707.97  1745.49  1792.37  1817.09
                             1871.81  1878.78  1909.20  1964.84  2010.17
                             2072.77  2087.58  2133.19  2135.98  2149.69
                             2162.27  2216.00  2363.22  2512.27  2594.42
                             4126.42  4180.68  4208.57  4299.84  4310.15
                             4335.91  4354.09  4396.19  4419.69  4507.55
                             5032.60  5070.24  5157.32

 Zero-point correction=                           0.197404 (Hartree/Particle)
 Thermal correction to Energy=                    0.209429
 Thermal correction to Enthalpy=                  0.210373
 Thermal correction to Gibbs Free Energy=         0.157630
 Sum of electronic and zero-point Energies=           -475.736248
 Sum of electronic and thermal Energies=              -475.724223
 Sum of electronic and thermal Enthalpies=            -475.723279
 Sum of electronic and thermal Free Energies=         -475.776022

                     E (Thermal)             CV                S
                      KCal/Mol        Cal/Mol-Kelvin    Cal/Mol-Kelvin
 Total                  131.419             41.227            111.007
 Electronic               0.000              0.000              0.000
 Translational            0.889              2.981             40.786
 Rotational               0.889              2.981             30.267
 Vibrational            129.641             35.265             39.954
 Vibration     1          0.594              1.983              5.677
 Vibration     2          0.595              1.977              4.803
 Vibration     3          0.597              1.972              4.358
 Vibration     4          0.600              1.961              3.806
 Vibration     5          0.604              1.950              3.489
 Vibration     6          0.611              1.925              2.977
 Vibration     7          0.617              1.906              2.714
 Vibration     8          0.638              1.841              2.138
 Vibration     9          0.669              1.744              1.656
 Vibration    10          0.687              1.690              1.466
 Vibration    11          0.716              1.606              1.236
 Vibration    12          0.738              1.546              1.105
 Vibration    13          0.829              1.312              0.732
 Vibration    14          0.834              1.300              0.717
 Vibration    15          0.889              1.174              0.577

                           ! Non-Optimized Parameters !
 Normal termination of Gaussian 16 at Tue Jun  1 07:13:46 2021.
