 Gaussian 16, Revision A.03,
 Gaussian 16:  ES64L-G16RevA.03 25-Dec-2016

 -----------------------------
 # opt freq b3lyp/6-31g(2df,p)
 -----------------------------

 -------------------
 Title Card Required
 -------------------
 Symbolic Z-matrix:
 Charge =  0 Multiplicity = 1

 SCF Done:  E(RB3LYP) =  -397.260651644     A.U. after   14 cycles
 SCF Done:  E(RB3LYP) =  -397.269404229     A.U. after   12 cycles
 SCF Done:  E(RB3LYP) =  -397.270278599     A.U. after   11 cycles
 SCF Done:  E(RB3LYP) =  -397.270331389     A.U. after    9 cycles
 SCF Done:  E(RB3LYP) =  -397.270338118     A.U. after    8 cycles
 Optimization completed.
    -- Stationary point found.
 Normal termination of Gaussian 16 at Mon May 31 14:59:41 2021.

 ----------------------------------------------------------------------
 #N Geom=AllCheck Guess=TCheck SCRF=Check GenChk RB3LYP/6-31G(2df,p) Fr
 eq
 ----------------------------------------------------------------------

 Structure from the checkpoint file:  "CdNNCpdNpCOC.chk"
 -------------------
 Title Card Required
 -------------------
 Charge =  0 Multiplicity = 1

                         Standard orientation:
 ---------------------------------------------------------------------
 Center     Atomic      Atomic             Coordinates (Angstroms)
 Number     Number       Type             X           Y           Z
 ---------------------------------------------------------------------
      1          6           0        3.532363   -0.568008   -0.000000
      2          7           0        2.497304    0.176396    0.000001
      3          7           0        1.281756   -0.399381   -0.000001
      4          6           0        0.121857    0.385490    0.000001
      5          7           0        0.071346    1.649772    0.000001
      6          6           0       -1.120701   -0.487051    0.000003
      7          8           0       -2.272683    0.294278   -0.000004
      8          6           0       -3.449496   -0.477718   -0.000001
      9          1           0        4.503347   -0.086610   -0.000005
     10          1           0        3.490382   -1.662397   -0.000005
     11          1           0        1.211566   -1.412580    0.000001
     12          1           0        1.020073    2.030154   -0.000001
     13          1           0       -1.086441   -1.151537    0.885294
     14          1           0       -1.086437   -1.151547   -0.885280
     15          1           0       -4.290584    0.218598   -0.000006
     16          1           0       -3.518708   -1.121035    0.892169
     17          1           0       -3.518706   -1.121046   -0.892163
 ---------------------------------------------------------------------

 SCF Done:  E(RB3LYP) =  -397.270338118     A.U. after    1 cycles

 The electronic state is 1-A.
 Alpha  occ. eigenvalues --  -19.14453 -14.39128 -14.38255 -14.28534 -10.25327
 Alpha  occ. eigenvalues --  -10.24372 -10.22717 -10.22336  -1.04452  -1.03070
 Alpha  occ. eigenvalues --   -0.89962  -0.82263  -0.74164  -0.67315  -0.62695
 Alpha  occ. eigenvalues --   -0.58601  -0.53636  -0.52277  -0.48787  -0.48149
 Alpha  occ. eigenvalues --   -0.44803  -0.44064  -0.43476  -0.40207  -0.38102
 Alpha  occ. eigenvalues --   -0.32265  -0.31516  -0.29580  -0.26017  -0.25706
 Alpha  occ. eigenvalues --   -0.22854
 Alpha virt. eigenvalues --   -0.01760   0.05148   0.06709   0.08142   0.11469
 Alpha virt. eigenvalues --    0.13067   0.14548   0.15683   0.16499   0.16742
 Alpha virt. eigenvalues --    0.17626   0.18492   0.21177   0.24253   0.27147

 Mulliken charges:
               1
     1  C   -0.235892
     2  N   -0.024922
     3  N   -0.299362
     4  C    0.366864
     5  N   -0.493487
     6  C   -0.119319
     7  O   -0.199542
     8  C   -0.227348
     9  H    0.135933
    10  H    0.099021
    11  H    0.235079
    12  H    0.228033
    13  H    0.096718
    14  H    0.096718
    15  H    0.135780
    16  H    0.102863
    17  H    0.102863
 Sum of Mulliken charges =  -0.00000

 Dipole moment (field-independent basis, Debye):
    X=              1.0912    Y=             -4.6335    Z=              0.0000  Tot=              4.7603
 Quadrupole moment (field-independent basis, Debye-Ang):
   XX=            -38.6685   YY=            -48.7976   ZZ=            -49.1114
   XY=              1.1325   XZ=             -0.0000   YZ=             -0.0000

  Exact polarizability: 108.297  -6.805  71.494  -0.000   0.000  43.463
 Approx polarizability: 134.152 -16.719 119.068   0.000  -0.000  65.950

 ******    1 imaginary frequencies (negative Signs) ******

                      1                      2                      3
                      A                      A                      A
 Frequencies --    -26.4024                65.9924               100.4044
 Red. masses --      2.2357                 3.9077                 3.7100
 Frc consts  --      0.0009                 0.0100                 0.0220
 IR Inten    --      0.0776                 1.2054                 2.1102

                      4                      5                      6
                      A                      A                      A
 Frequencies --    130.7289               160.3882               234.2502
 Red. masses --      3.5302                 2.4207                 1.1533
 Frc consts  --      0.0355                 0.0367                 0.0373
 IR Inten    --      0.6781                18.5324                 2.9365

                      7                      8                      9
                      A                      A                      A
 Frequencies --    253.3177               357.2767               400.5341
 Red. masses --      3.8325                 4.8483                 4.4698
 Frc consts  --      0.1449                 0.3646                 0.4225
 IR Inten    --      2.5578                 1.7451                 3.2147

                     10                     11                     12
                      A                      A                      A
 Frequencies --    411.5368               480.8070               560.7099
 Red. masses --      1.3408                 3.0256                 1.9481
 Frc consts  --      0.1338                 0.4121                 0.3609
 IR Inten    --     44.1013                15.9729                12.9188

                     13                     14                     15
                      A                      A                      A
 Frequencies --    733.9876               776.7980               917.7854
 Red. masses --      3.6329                 1.2427                 1.3519
 Frc consts  --      1.1531                 0.4418                 0.6709
 IR Inten    --     26.0851                 1.9464                35.7317

                     16                     17                     18
                      A                      A                      A
 Frequencies --    931.6654               958.2916               990.4936
 Red. masses --      1.3833                 2.8923                 4.0060
 Frc consts  --      0.7074                 1.5649                 2.3156
 IR Inten    --     41.0747                16.9971                 7.1937

                     19                     20                     21
                      A                      A                      A
 Frequencies --   1052.3414              1056.6330              1162.5226
 Red. masses --      1.6404                 2.9696                 2.3642
 Frc consts  --      1.0704                 1.9534                 1.8825
 IR Inten    --     12.2270                46.0783                32.9326

                     22                     23                     24
                      A                      A                      A
 Frequencies --   1181.5953              1184.1876              1218.1703
 Red. masses --      2.3779                 1.2800                 1.8663
 Frc consts  --      1.9561                 1.0576                 1.6317
 IR Inten    --    143.6940                 4.6916                 7.9033

                     25                     26                     27
                      A                      A                      A
 Frequencies --   1242.4743              1269.6367              1298.2876
 Red. masses --      2.5382                 1.0880                 1.5553
 Frc consts  --      2.3086                 1.0333                 1.5446
 IR Inten    --    237.4326                 1.0339               207.6257

                     28                     29                     30
                      A                      A                      A
 Frequencies --   1428.2403              1469.2311              1478.5023
 Red. masses --      1.3864                 1.2220                 1.1659
 Frc consts  --      1.6662                 1.5542                 1.5016
 IR Inten    --     11.4500                19.3232                11.1256

                     31                     32                     33
                      A                      A                      A
 Frequencies --   1486.2751              1496.6696              1525.4042
 Red. masses --      1.0468                 1.0636                 1.1194
 Frc consts  --      1.3624                 1.4037                 1.5346
 IR Inten    --      5.5441                13.6418                 3.2910

                     34                     35                     36
                      A                      A                      A
 Frequencies --   1545.8184              1689.6002              1757.2056
 Red. masses --      1.6355                 6.2526                 7.9533
 Frc consts  --      2.3027                10.5166                14.4691
 IR Inten    --    145.7963                37.7819               125.9244

                     37                     38                     39
                      A                      A                      A
 Frequencies --   2913.8526              2928.6333              2965.3913
 Red. masses --      1.0532                 1.1013                 1.0381
 Frc consts  --      5.2686                 5.5655                 5.3783
 IR Inten    --     49.8995                58.2352                66.8288

                     40                     41                     42
                      A                      A                      A
 Frequencies --   3007.7294              3047.6854              3123.0517
 Red. masses --      1.1030                 1.0653                 1.0951
 Frc consts  --      5.8791                 5.8298                 6.2930
 IR Inten    --     62.1646                25.0490                25.5981

                     43                     44                     45
                      A                      A                      A
 Frequencies --   3217.3335              3467.5330              3499.2304
 Red. masses --      1.1057                 1.0724                 1.0751
 Frc consts  --      6.7432                 7.5972                 7.7561
 IR Inten    --      7.0014                 3.0126                 0.7823

 - Thermochemistry -
 -------------------
 Temperature   298.150 Kelvin.  Pressure   1.00000 Atm.
 Atom     1 has atomic number  6 and mass  12.00000

 Molecular mass:   115.07456 amu.
 Principal axes and moments of inertia in atomic units:
                           1         2         3
     Eigenvalues --   251.834042089.229022318.32175
           X            0.99997   0.00727  -0.00000
           Y           -0.00727   0.99997  -0.00000
           Z            0.00000   0.00000   1.00000
 This molecule is an asymmetric top.
 Rotational symmetry number  1.
 Rotational temperatures (Kelvin)      0.34393     0.04146     0.03736
 Rotational constants (GHZ):           7.16639     0.86383     0.77847
    1 imaginary frequencies ignored.
 Zero-point vibrational energy     365926.9 (Joules/Mol)
                                   87.45863 (Kcal/Mol)
 Warning -- explicit consideration of  11 degrees of freedom as
           vibrations may cause significant error
 Vibrational temperatures:     94.95   144.46   188.09   230.76   337.03
          (Kelvin)            364.47   514.04   576.28   592.11   691.77
                              806.74  1056.04  1117.64  1320.49  1340.46
                             1378.77  1425.10  1514.08  1520.26  1672.61
                             1700.05  1703.78  1752.68  1787.64  1826.72
                             1867.95  2054.92  2113.90  2127.24  2138.42
                             2153.37  2194.72  2224.09  2430.96  2528.23
                             4192.38  4213.65  4266.54  4327.45  4384.94
                             4493.37  4629.03  4989.01  5034.61

 Zero-point correction=                           0.139374 (Hartree/Particle)
 Thermal correction to Energy=                    0.147992
 Thermal correction to Enthalpy=                  0.148936
 Thermal correction to Gibbs Free Energy=         0.105607
 Sum of electronic and zero-point Energies=           -397.130964
 Sum of electronic and thermal Energies=              -397.122346
 Sum of electronic and thermal Enthalpies=            -397.121402
 Sum of electronic and thermal Free Energies=         -397.164731

                     E (Thermal)             CV                S
                      KCal/Mol        Cal/Mol-Kelvin    Cal/Mol-Kelvin
 Total                   92.866             29.932             91.195
 Electronic               0.000              0.000              0.000
 Translational            0.889              2.981             40.137
 Rotational               0.889              2.981             28.591
 Vibrational             91.089             23.971             22.467
 Vibration     1          0.597              1.970              4.269
 Vibration     2          0.604              1.949              3.446
 Vibration     3          0.612              1.923              2.935
 Vibration     4          0.622              1.891              2.545
 Vibration     5          0.654              1.788              1.846
 Vibration     6          0.664              1.757              1.707
 Vibration     7          0.732              1.560              1.134
 Vibration     8          0.766              1.469              0.961
 Vibration     9          0.776              1.445              0.921
 Vibration    10          0.837              1.293              0.708
 Vibration    11          0.916              1.116              0.522

 Optimization completed.
    -- Stationary point found.
 Normal termination of Gaussian 16 at Mon May 31 15:21:07 2021.
