 Gaussian 16, Revision A.03,
 Gaussian 16:  ES64L-G16RevA.03 25-Dec-2016

 -----------------------------
 # opt freq b3lyp/6-31g(2df,p)
 -----------------------------

 -------------------
 Title Card Required
 -------------------
 Symbolic Z-matrix:
 Charge =  0 Multiplicity = 1

 SCF Done:  E(RB3LYP) =  -338.026771365     A.U. after   14 cycles
 SCF Done:  E(RB3LYP) =  -338.035128670     A.U. after   13 cycles
 SCF Done:  E(RB3LYP) =  -338.036424882     A.U. after   12 cycles
 SCF Done:  E(RB3LYP) =  -338.036550135     A.U. after    9 cycles
 SCF Done:  E(RB3LYP) =  -338.036553692     A.U. after    9 cycles
 SCF Done:  E(RB3LYP) =  -338.036556268     A.U. after    8 cycles
 Optimization completed.
    -- Stationary point found.
 Normal termination of Gaussian 16 at Tue Jun  1 02:51:40 2021.

 ----------------------------------------------------------------------
 #N Geom=AllCheck Guess=TCheck SCRF=Check GenChk RB3LYP/6-31G(2df,p) Fr
 eq
 ----------------------------------------------------------------------

 Structure from the checkpoint file:  "CdNNpCpCNdN.chk"
 -------------------
 Title Card Required
 -------------------
 Charge =  0 Multiplicity = 1

                         Standard orientation:
 ---------------------------------------------------------------------
 Center     Atomic      Atomic             Coordinates (Angstroms)
 Number     Number       Type             X           Y           Z
 ---------------------------------------------------------------------
      1          6           0        2.802232   -0.359022   -0.000002
      2          7           0        1.586373   -0.758053    0.000001
      3          7           0        0.524864    0.054817    0.000005
      4          6           0        0.556112    1.507521    0.000002
      5          6           0       -0.725584   -0.683886   -0.000001
      6          7           0       -1.865645    0.241171   -0.000011
      7          7           0       -2.950881   -0.357013    0.000010
      8          1           0        3.563405   -1.131055   -0.000004
      9          1           0        3.134906    0.679078   -0.000004
     10          1           0        1.591819    1.842553    0.000018
     11          1           0        0.062136    1.923115    0.885172
     12          1           0        0.062161    1.923113   -0.885183
     13          1           0       -0.793421   -1.329940    0.885381
     14          1           0       -0.793410   -1.329940   -0.885384
     15          1           0       -3.687135    0.368948   -0.000022
 ---------------------------------------------------------------------

 SCF Done:  E(RB3LYP) =  -338.036556268     A.U. after    1 cycles

 The electronic state is 1-A.
 Alpha  occ. eigenvalues --  -14.39601 -14.38286 -14.36719 -14.35517 -10.24316
 Alpha  occ. eigenvalues --  -10.21338 -10.19008  -1.04392  -1.00390  -0.84156
 Alpha  occ. eigenvalues --   -0.75508  -0.70955  -0.61372  -0.56050  -0.52063
 Alpha  occ. eigenvalues --   -0.49028  -0.48783  -0.47448  -0.42823  -0.42036
 Alpha  occ. eigenvalues --   -0.40178  -0.39082  -0.37565  -0.34085  -0.26274
 Alpha  occ. eigenvalues --   -0.23939  -0.19961
 Alpha virt. eigenvalues --   -0.05747   0.02108   0.09422   0.10323   0.12342
 Alpha virt. eigenvalues --    0.13482   0.14396   0.16661   0.18578   0.19611
 Alpha virt. eigenvalues --    0.19898   0.21772   0.24834   0.26911   0.33772

 Mulliken charges:
               1
     1  C   -0.275975
     2  N   -0.076449
     3  N   -0.035425
     4  C   -0.321913
     5  C   -0.009265
     6  N   -0.147023
     7  N   -0.263707
     8  H    0.114971
     9  H    0.094442
    10  H    0.132719
    11  H    0.132447
    12  H    0.132447
    13  H    0.136073
    14  H    0.136074
    15  H    0.250583
 Sum of Mulliken charges =  -0.00000

 Dipole moment (field-independent basis, Debye):
    X=             -0.5972    Y=              1.7936    Z=             -0.0000  Tot=              1.8904
 Quadrupole moment (field-independent basis, Debye-Ang):
   XX=            -38.6753   YY=            -42.7108   ZZ=            -42.2822
   XY=             -0.3952   XZ=              0.0001   YZ=              0.0001

  Exact polarizability: 100.956  -4.801  56.870  -0.000  -0.000  38.503
 Approx polarizability: 141.123  -2.720  81.621  -0.000  -0.000  58.778

 ******    3 imaginary frequencies (negative Signs) ******

                      1                      2                      3
                      A                      A                      A
 Frequencies --   -219.1689              -169.0499               -86.4200
 Red. masses --      1.2870                 1.7767                 8.8967
 Frc consts  --      0.0364                 0.0299                 0.0391
 IR Inten    --      0.6887                 2.7957                 1.6773

                      4                      5                      6
                      A                      A                      A
 Frequencies --     67.6906               197.8019               239.0756
 Red. masses --      3.2630                 3.9130                 2.4180
 Frc consts  --      0.0088                 0.0902                 0.0814
 IR Inten    --      1.1520                 1.5828                 4.4018

                      7                      8                      9
                      A                      A                      A
 Frequencies --    364.4506               452.2775               458.8335
 Red. masses --      3.2403                 3.8266                 4.9070
 Frc consts  --      0.2536                 0.4612                 0.6087
 IR Inten    --      0.2278                 3.2830                 0.4042

                     10                     11                     12
                      A                      A                      A
 Frequencies --    637.0996               756.0508               795.8179
 Red. masses --      2.9841                 1.2290                 1.1578
 Frc consts  --      0.7136                 0.4139                 0.4320
 IR Inten    --     43.3747                 0.0046                18.7928

                     13                     14                     15
                      A                      A                      A
 Frequencies --    832.2193               863.8057               979.7452
 Red. masses --      3.7601                 1.4064                 4.6517
 Frc consts  --      1.5344                 0.6183                 2.6308
 IR Inten    --      1.8224                31.6566                12.7628

                     16                     17                     18
                      A                      A                      A
 Frequencies --   1044.5894              1098.9308              1129.5870
 Red. masses --      1.7345                 1.4150                 1.2818
 Frc consts  --      1.1151                 1.0068                 0.9637
 IR Inten    --    125.8145                32.1972                 2.4752

                     19                     20                     21
                      A                      A                      A
 Frequencies --   1185.1343              1232.8248              1281.1373
 Red. masses --      1.7070                 1.0578                 2.9555
 Frc consts  --      1.4126                 0.9472                 2.8581
 IR Inten    --     34.4130                 3.4022                10.5318

                     22                     23                     24
                      A                      A                      A
 Frequencies --   1328.5037              1384.4951              1441.6916
 Red. masses --      3.9332                 1.4541                 1.2036
 Frc consts  --      4.0900                 1.6421                 1.4739
 IR Inten    --     24.9681                85.9932                28.8896

                     25                     26                     27
                      A                      A                      A
 Frequencies --   1473.5643              1475.7927              1492.7850
 Red. masses --      1.0420                 1.0931                 1.2747
 Frc consts  --      1.3331                 1.4027                 1.6736
 IR Inten    --      4.6997                32.2534                29.7872

                     28                     29                     30
                      A                      A                      A
 Frequencies --   1508.5215              1510.2096              1667.7111
 Red. masses --      1.0762                 1.1781                10.1186
 Frc consts  --      1.4429                 1.5831                16.5811
 IR Inten    --      9.0445                 2.8632                 0.7255

                     31                     32                     33
                      A                      A                      A
 Frequencies --   1676.5326              3002.5996              3028.4959
 Red. masses --      6.0078                 1.0551                 1.0391
 Frc consts  --      9.9493                 5.6047                 5.6153
 IR Inten    --     91.8813                47.3565                42.4410

                     34                     35                     36
                      A                      A                      A
 Frequencies --   3039.7222              3075.0367              3089.3401
 Red. masses --      1.1074                 1.1037                 1.0606
 Frc consts  --      6.0285                 6.1487                 5.9641
 IR Inten    --     18.1585                26.9366                25.1213

                     37                     38                     39
                      A                      A                      A
 Frequencies --   3161.1956              3208.6369              3264.1349
 Red. masses --      1.0937                 1.1089                 1.0745
 Frc consts  --      6.4396                 6.7265                 6.7455
 IR Inten    --     13.4572                16.6278                22.3692

 - Thermochemistry -
 -------------------
 Temperature   298.150 Kelvin.  Pressure   1.00000 Atm.
 Atom     1 has atomic number  6 and mass  12.00000

 Molecular mass:   100.07490 amu.
 Principal axes and moments of inertia in atomic units:
                           1         2         3
     Eigenvalues --   230.370141276.087151483.89235
           X            0.99997   0.00716   0.00000
           Y           -0.00716   0.99997   0.00000
           Z           -0.00000  -0.00000   1.00000
 This molecule is an asymmetric top.
 Rotational symmetry number  1.
 Rotational temperatures (Kelvin)      0.37598     0.06787     0.05837
 Rotational constants (GHZ):           7.83409     1.41428     1.21622
    3 imaginary frequencies ignored.
 Zero-point vibrational energy     319678.3 (Joules/Mol)
                                   76.40495 (Kcal/Mol)
 Warning -- explicit consideration of   6 degrees of freedom as
           vibrations may cause significant error
 Vibrational temperatures:     97.39   284.59   343.98   524.36   650.73
          (Kelvin)            660.16   916.64  1087.79  1145.00  1197.38
                             1242.82  1409.63  1502.93  1581.12  1625.22
                             1705.14  1773.76  1843.27  1911.42  1991.98
                             2074.27  2120.13  2123.34  2147.78  2170.43
                             2172.85  2399.46  2412.16  4320.07  4357.33
                             4373.48  4424.29  4444.87  4548.26  4616.51
                             4696.36

 Zero-point correction=                           0.121759 (Hartree/Particle)
 Thermal correction to Energy=                    0.127981
 Thermal correction to Enthalpy=                  0.128925
 Thermal correction to Gibbs Free Energy=         0.090980
 Sum of electronic and zero-point Energies=           -337.914797
 Sum of electronic and thermal Energies=              -337.908575
 Sum of electronic and thermal Enthalpies=            -337.907631
 Sum of electronic and thermal Free Energies=         -337.945576

                     E (Thermal)             CV                S
                      KCal/Mol        Cal/Mol-Kelvin    Cal/Mol-Kelvin
 Total                   80.309             21.915             79.862
 Electronic               0.000              0.000              0.000
 Translational            0.889              2.981             39.720
 Rotational               0.889              2.981             27.569
 Vibrational             78.532             15.954             12.573
 Vibration     1          0.598              1.970              4.219
 Vibration     2          0.637              1.843              2.153
 Vibration     3          0.657              1.781              1.810
 Vibration     4          0.738              1.545              1.103
 Vibration     5          0.811              1.356              0.789
 Vibration     6          0.817              1.341              0.770

 Optimization completed.
    -- Stationary point found.
 Normal termination of Gaussian 16 at Tue Jun  1 03:05:21 2021.
