 Gaussian 16, Revision A.03,
 Gaussian 16:  ES64L-G16RevA.03 25-Dec-2016

 -----------------------------
 # opt freq b3lyp/6-31g(2df,p)
 -----------------------------

 -------------------
 Title Card Required
 -------------------
 Symbolic Z-matrix:
 Charge =  0 Multiplicity = 1

 SCF Done:  E(RB3LYP) =  -432.687900550     A.U. after   14 cycles
 SCF Done:  E(RB3LYP) =  -432.695736537     A.U. after   14 cycles
 SCF Done:  E(RB3LYP) =  -432.697315197     A.U. after   13 cycles
 SCF Done:  E(RB3LYP) =  -432.698645832     A.U. after   14 cycles
 SCF Done:  E(RB3LYP) =  -432.701857877     A.U. after   16 cycles
 SCF Done:  E(RB3LYP) =  -432.704246741     A.U. after   14 cycles
 SCF Done:  E(RB3LYP) =  -432.705304007     A.U. after   13 cycles
 SCF Done:  E(RB3LYP) =  -432.705811627     A.U. after   14 cycles
 SCF Done:  E(RB3LYP) =  -432.706250017     A.U. after   13 cycles
 SCF Done:  E(RB3LYP) =  -432.706404152     A.U. after   13 cycles
 SCF Done:  E(RB3LYP) =  -432.711802214     A.U. after   13 cycles
 SCF Done:  E(RB3LYP) =  -432.712041607     A.U. after   12 cycles
 SCF Done:  E(RB3LYP) =  -432.712190613     A.U. after   13 cycles
 SCF Done:  E(RB3LYP) =  -432.712208442     A.U. after   11 cycles
 SCF Done:  E(RB3LYP) =  -432.712218776     A.U. after   10 cycles
 SCF Done:  E(RB3LYP) =  -432.712224239     A.U. after   10 cycles
 SCF Done:  E(RB3LYP) =  -432.712225949     A.U. after    8 cycles
 SCF Done:  E(RB3LYP) =  -432.712227146     A.U. after    8 cycles
 SCF Done:  E(RB3LYP) =  -432.712227616     A.U. after    8 cycles
 Optimization completed.
    -- Stationary point found.
 Normal termination of Gaussian 16 at Tue Jun  1 18:51:22 2021.

 ----------------------------------------------------------------------
 #N Geom=AllCheck Guess=TCheck SCRF=Check GenChk RB3LYP/6-31G(2df,p) Fr
 eq
 ----------------------------------------------------------------------

 Structure from the checkpoint file:  "CdNNpCpCNCNdN.chk"
 -------------------
 Title Card Required
 -------------------
 Charge =  0 Multiplicity = 1

                         Standard orientation:
 ---------------------------------------------------------------------
 Center     Atomic      Atomic             Coordinates (Angstroms)
 Number     Number       Type             X           Y           Z
 ---------------------------------------------------------------------
      1          6           0       -3.231418   -0.994067    0.582002
      2          7           0       -2.265435   -0.831873   -0.241667
      3          7           0       -1.668076    0.374223   -0.391441
      4          6           0       -1.902529    1.438172    0.568235
      5          6           0       -0.363438    0.274316   -0.999348
      6          7           0        0.668172   -0.074103   -0.023155
      7          6           0        2.003045   -0.094897   -0.587203
      8          7           0        2.930958   -0.537131    0.463861
      9          7           0        3.953004    0.161225    0.523585
     10          1           0       -3.688535   -1.977281    0.611252
     11          1           0       -3.635274   -0.222911    1.236789
     12          1           0       -1.688425    1.122970    1.599981
     13          1           0       -2.944396    1.773793    0.517231
     14          1           0       -1.255033    2.280515    0.322315
     15          1           0       -0.098398    1.244496   -1.435980
     16          1           0       -0.455864   -0.457901   -1.815291
     17          1           0        0.456430   -0.990803    0.363255
     18          1           0        2.275149    0.900780   -0.960165
     19          1           0        2.129336   -0.820206   -1.415400
     20          1           0        4.540685   -0.240986    1.275620
 ---------------------------------------------------------------------

 SCF Done:  E(RB3LYP) =  -432.712227616     A.U. after    1 cycles

 The electronic state is 1-A.
 Alpha  occ. eigenvalues --  -14.38622 -14.37663 -14.36731 -14.35565 -14.32028
 Alpha  occ. eigenvalues --  -10.23950 -10.23576 -10.21236 -10.19736  -1.03366
 Alpha  occ. eigenvalues --   -1.00956  -0.91243  -0.83038  -0.74917  -0.71088
 Alpha  occ. eigenvalues --   -0.65519  -0.60239  -0.55886  -0.51874  -0.51247
 Alpha  occ. eigenvalues --   -0.49287  -0.47811  -0.46012  -0.44128  -0.42242
 Alpha  occ. eigenvalues --   -0.41288  -0.39734  -0.38701  -0.37797  -0.35951
 Alpha  occ. eigenvalues --   -0.35132  -0.26639  -0.24079  -0.22953  -0.21564
 Alpha virt. eigenvalues --   -0.04398   0.01538   0.08908   0.10420   0.11254
 Alpha virt. eigenvalues --    0.11531   0.13435   0.14171   0.15254   0.16005
 Alpha virt. eigenvalues --    0.16638   0.17068   0.18050   0.20488   0.21877

 Mulliken charges:
               1
     1  C   -0.258686
     2  N   -0.091743
     3  N    0.002993
     4  C   -0.332333
     5  C   -0.096959
     6  N   -0.299458
     7  C   -0.043937
     8  N   -0.119050
     9  N   -0.271944
    10  H    0.116319
    11  H    0.100193
    12  H    0.127593
    13  H    0.128968
    14  H    0.133346
    15  H    0.106980
    16  H    0.108555
    17  H    0.231125
    18  H    0.113031
    19  H    0.099019
    20  H    0.245987
 Sum of Mulliken charges =  -0.00000

 Dipole moment (field-independent basis, Debye):
    X=             -0.1052    Y=              0.6313    Z=              0.3515  Tot=              0.7302
 Quadrupole moment (field-independent basis, Debye-Ang):
   XX=            -52.9573   YY=            -54.0254   ZZ=            -53.3199
   XY=             -4.2432   XZ=             -1.9838   YZ=             -0.5909

  Exact polarizability: 112.688  11.303  73.455  -4.426  -2.220  68.179
 Approx polarizability: 141.369  21.345 112.099 -10.547  -6.127 105.877

                      1                      2                      3
                      A                      A                      A
 Frequencies --     38.0838                55.4313                82.6149
 Red. masses --      3.9517                 4.6007                 2.9434
 Frc consts  --      0.0034                 0.0083                 0.0118
 IR Inten    --      0.7941                 0.1840                 2.8665

                      4                      5                      6
                      A                      A                      A
 Frequencies --    111.6967               141.9978               197.8215
 Red. masses --      4.2449                 2.6757                 2.6715
 Frc consts  --      0.0312                 0.0318                 0.0616
 IR Inten    --      4.5958                 2.2381                 3.7562

                      7                      8                      9
                      A                      A                      A
 Frequencies --    230.2634               278.8931               341.9011
 Red. masses --      1.4738                 2.3948                 2.5513
 Frc consts  --      0.0460                 0.1097                 0.1757
 IR Inten    --      0.2946                 3.8327                 0.6921

                     10                     11                     12
                      A                      A                      A
 Frequencies --    381.6389               425.0850               467.5363
 Red. masses --      3.7561                 2.3373                 3.2299
 Frc consts  --      0.3223                 0.2488                 0.4160
 IR Inten    --      2.1994                 3.0375                 9.5725

                     13                     14                     15
                      A                      A                      A
 Frequencies --    566.7829               628.6984               790.2454
 Red. masses --      3.4653                 2.7889                 1.3117
 Frc consts  --      0.6559                 0.6495                 0.4826
 IR Inten    --     17.2255                23.0633                 1.2962

                     16                     17                     18
                      A                      A                      A
 Frequencies --    820.4892               829.8267               868.9592
 Red. masses --      1.6371                 2.0111                 1.3450
 Frc consts  --      0.6493                 0.8160                 0.5984
 IR Inten    --     41.2563                12.6974                39.1896

                     19                     20                     21
                      A                      A                      A
 Frequencies --    899.7092               976.4569               997.0886
 Red. masses --      1.3896                 3.3100                 1.8156
 Frc consts  --      0.6628                 1.8594                 1.0635
 IR Inten    --     32.1425                 9.1794                25.3349

                     22                     23                     24
                      A                      A                      A
 Frequencies --   1057.2647              1088.8738              1122.9400
 Red. masses --      1.8215                 2.0704                 2.0050
 Frc consts  --      1.1996                 1.4463                 1.4896
 IR Inten    --     88.2605                45.8892                 5.6534

                     25                     26                     27
                      A                      A                      A
 Frequencies --   1130.4968              1152.0948              1194.7785
 Red. masses --      1.6767                 2.0675                 1.7480
 Frc consts  --      1.2625                 1.6168                 1.4702
 IR Inten    --     47.5924                77.0296                21.4363

                     28                     29                     30
                      A                      A                      A
 Frequencies --   1219.3116              1272.7571              1324.2921
 Red. masses --      1.3134                 1.6607                 2.7592
 Frc consts  --      1.1505                 1.5851                 2.8510
 IR Inten    --     11.0095                29.8926                40.4706

                     31                     32                     33
                      A                      A                      A
 Frequencies --   1355.5754              1365.4966              1423.3134
 Red. masses --      1.3954                 1.3799                 1.3061
 Frc consts  --      1.5107                 1.5159                 1.5590
 IR Inten    --     14.3929                41.3130                 5.2409

                     34                     35                     36
                      A                      A                      A
 Frequencies --   1441.4190              1472.9033              1475.1248
 Red. masses --      1.2144                 1.2435                 1.0466
 Frc consts  --      1.4866                 1.5894                 1.3418
 IR Inten    --      2.9461                76.9243                 4.9238

                     37                     38                     39
                      A                      A                      A
 Frequencies --   1487.5808              1493.2822              1495.1779
 Red. masses --      1.1151                 1.1979                 1.1919
 Frc consts  --      1.4539                 1.5738                 1.5700
 IR Inten    --     25.7993                11.6225                18.0499

                     40                     41                     42
                      A                      A                      A
 Frequencies --   1505.5382              1517.7553              1664.6244
 Red. masses --      1.1167                 1.1029                10.2569
 Frc consts  --      1.4913                 1.4969                16.7456
 IR Inten    --      0.7021                21.5552                 5.9587

                     43                     44                     45
                      A                      A                      A
 Frequencies --   1667.8504              2906.9824              2992.9271
 Red. masses --      5.4318                 1.0685                 1.0623
 Frc consts  --      8.9024                 5.3198                 5.6066
 IR Inten    --     43.9937                67.8096                63.7817

                     46                     47                     48
                      A                      A                      A
 Frequencies --   2997.7277              3040.3673              3055.3312
 Red. masses --      1.0463                 1.0900                 1.0986
 Frc consts  --      5.5400                 5.9363                 6.0424
 IR Inten    --     16.7688                20.9228                32.3420

                     49                     50                     51
                      A                      A                      A
 Frequencies --   3062.6607              3103.2939              3140.0318
 Red. masses --      1.0938                 1.0573                 1.0972
 Frc consts  --      6.0450                 5.9993                 6.3738
 IR Inten    --     31.2712                16.9383                12.1005

                     52                     53                     54
                      A                      A                      A
 Frequencies --   3210.4943              3242.2566              3503.1190
 Red. masses --      1.1130                 1.0738                 1.0731
 Frc consts  --      6.7592                 6.6505                 7.7589
 IR Inten    --     15.2765                31.1670                 2.6734

 - Thermochemistry -
 -------------------
 Temperature   298.150 Kelvin.  Pressure   1.00000 Atm.
 Atom     1 has atomic number  6 and mass  12.00000

 Molecular mass:   129.10145 amu.
 Principal axes and moments of inertia in atomic units:
                           1         2         3
     Eigenvalues --   430.272932837.600922919.88120
           X            0.99989  -0.00417  -0.01390
           Y            0.00458   0.99955   0.02960
           Z            0.01377  -0.02966   0.99947
 This molecule is an asymmetric top.
 Rotational symmetry number  1.
 Rotational temperatures (Kelvin)      0.20130     0.03052     0.02966
 Rotational constants (GHZ):           4.19441     0.63601     0.61809
 Zero-point vibrational energy     444501.6 (Joules/Mol)
                                  106.23843 (Kcal/Mol)
 Warning -- explicit consideration of  13 degrees of freedom as
           vibrations may cause significant error
 Vibrational temperatures:     54.79    79.75   118.86   160.71   204.30
          (Kelvin)            284.62   331.30   401.27   491.92   549.09
                              611.60   672.68   815.47   904.56  1136.99
                             1180.50  1193.94  1250.24  1294.48  1404.90
                             1434.59  1521.17  1566.65  1615.66  1626.53
                             1657.61  1719.02  1754.32  1831.21  1905.36
                             1950.37  1964.65  2047.83  2073.88  2119.18
                             2122.38  2140.30  2148.50  2151.23  2166.13
                             2183.71  2395.02  2399.66  4182.50  4306.15
                             4313.06  4374.41  4395.94  4406.49  4464.95
                             4517.81  4619.19  4664.88  5040.21

 Zero-point correction=                           0.169302 (Hartree/Particle)
 Thermal correction to Energy=                    0.179703
 Thermal correction to Enthalpy=                  0.180647
 Thermal correction to Gibbs Free Energy=         0.132192
 Sum of electronic and zero-point Energies=           -432.542926
 Sum of electronic and thermal Energies=              -432.532525
 Sum of electronic and thermal Enthalpies=            -432.531581
 Sum of electronic and thermal Free Energies=         -432.580036

                     E (Thermal)             CV                S
                      KCal/Mol        Cal/Mol-Kelvin    Cal/Mol-Kelvin
 Total                  112.765             35.827            101.983
 Electronic               0.000              0.000              0.000
 Translational            0.889              2.981             40.479
 Rotational               0.889              2.981             29.657
 Vibrational            110.988             29.865             31.847
 Vibration     1          0.594              1.982              5.356
 Vibration     2          0.596              1.975              4.614
 Vibration     3          0.600              1.961              3.828
 Vibration     4          0.607              1.940              3.239
 Vibration     5          0.615              1.911              2.777
 Vibration     6          0.637              1.843              2.153
 Vibration     7          0.652              1.795              1.877
 Vibration     8          0.679              1.713              1.540
 Vibration     9          0.721              1.592              1.203
 Vibration    10          0.751              1.509              1.033
 Vibration    11          0.787              1.416              0.875
 Vibration    12          0.825              1.322              0.744
 Vibration    13          0.923              1.103              0.510

                           ! Non-Optimized Parameters !
 Normal termination of Gaussian 16 at Tue Jun  1 19:15:57 2021.
