 Gaussian 16, Revision A.03,
 Gaussian 16:  ES64L-G16RevA.03 25-Dec-2016

 -----------------------------
 # opt freq b3lyp/6-31g(2df,p)
 -----------------------------

 -------------------
 Title Card Required
 -------------------
 Symbolic Z-matrix:
 Charge =  0 Multiplicity = 1

 SCF Done:  E(RB3LYP) =  -415.477441876     A.U. after   14 cycles
 SCF Done:  E(RB3LYP) =  -415.487383154     A.U. after   14 cycles
 SCF Done:  E(RB3LYP) =  -415.487796237     A.U. after   11 cycles
 SCF Done:  E(RB3LYP) =  -415.488038782     A.U. after   11 cycles
 SCF Done:  E(RB3LYP) =  -415.488056402     A.U. after    9 cycles
 SCF Done:  E(RB3LYP) =  -415.488058521     A.U. after    8 cycles
 Optimization completed.
    -- Stationary point found.
 Normal termination of Gaussian 16 at Tue Jun  1 18:34:33 2021.

 ----------------------------------------------------------------------
 #N Geom=AllCheck Guess=TCheck SCRF=Check GenChk RB3LYP/6-31G(2df,p) Fr
 eq
 ----------------------------------------------------------------------

 Structure from the checkpoint file:  "CdNNpCpCCNCtN.chk"
 -------------------
 Title Card Required
 -------------------
 Charge =  0 Multiplicity = 1

                         Standard orientation:
 ---------------------------------------------------------------------
 Center     Atomic      Atomic             Coordinates (Angstroms)
 Number     Number       Type             X           Y           Z
 ---------------------------------------------------------------------
      1          6           0        3.796309   -0.366443   -0.000045
      2          7           0        2.577480   -0.752411   -0.000003
      3          7           0        1.521529    0.075146    0.000015
      4          6           0        1.591430    1.525467   -0.000023
      5          6           0        0.260101   -0.649991    0.000017
      6          6           0       -0.976214    0.249397    0.000108
      7          7           0       -2.158773   -0.609792    0.000092
      8          6           0       -3.390649   -0.119326   -0.000025
      9          7           0       -4.462759    0.331523   -0.000089
     10          1           0        4.549097   -1.146710   -0.000048
     11          1           0        4.142934    0.667400   -0.000076
     12          1           0        2.633122    1.839821   -0.000018
     13          1           0        1.121653    1.961332    0.890448
     14          1           0        1.121671    1.961289   -0.890525
     15          1           0        0.214735   -1.304086    0.882821
     16          1           0        0.214678   -1.303996   -0.882853
     17          1           0       -0.992101    0.894385   -0.885370
     18          1           0       -0.992067    0.894243    0.885687
     19          1           0       -2.041938   -1.609566   -0.000372
 ---------------------------------------------------------------------

 SCF Done:  E(RB3LYP) =  -415.488058521     A.U. after    1 cycles

 The electronic state is 1-A.
 Alpha  occ. eigenvalues --  -14.38862 -14.38072 -14.36523 -14.31039 -10.25210
 Alpha  occ. eigenvalues --  -10.24001 -10.23671 -10.23082 -10.20148  -1.01645
 Alpha  occ. eigenvalues --   -0.97438  -0.87819  -0.85071  -0.76985  -0.72907
 Alpha  occ. eigenvalues --   -0.65096  -0.61144  -0.56842  -0.52968  -0.51346
 Alpha  occ. eigenvalues --   -0.49894  -0.49308  -0.45843  -0.41909  -0.41577
 Alpha  occ. eigenvalues --   -0.40610  -0.39678  -0.37348  -0.35147  -0.34857
 Alpha  occ. eigenvalues --   -0.32229  -0.27218  -0.25076  -0.21201
 Alpha virt. eigenvalues --    0.00879   0.03104   0.06008   0.06652   0.08207
 Alpha virt. eigenvalues --    0.10052   0.10484   0.13222   0.13841   0.14106
 Alpha virt. eigenvalues --    0.14563   0.17015   0.19148   0.20361   0.21454

 Mulliken charges:
               1
     1  C   -0.273232
     2  N   -0.076097
     3  N   -0.022227
     4  C   -0.337543
     5  C   -0.115984
     6  C   -0.176611
     7  N   -0.405534
     8  C    0.336686
     9  N   -0.343992
    10  H    0.120200
    11  H    0.097063
    12  H    0.144325
    13  H    0.133725
    14  H    0.133723
    15  H    0.119863
    16  H    0.119841
    17  H    0.134194
    18  H    0.134208
    19  H    0.277394
 Sum of Mulliken charges =  -0.00000

 Dipole moment (field-independent basis, Debye):
    X=              4.1311    Y=              0.0506    Z=             -0.0004  Tot=              4.1314
 Quadrupole moment (field-independent basis, Debye-Ang):
   XX=            -80.5348   YY=            -50.1606   ZZ=            -54.7141
   XY=             10.0125   XZ=              0.0005   YZ=              0.0014

  Exact polarizability: 128.352  -8.041  71.284   0.001   0.000  51.260
 Approx polarizability: 174.662 -15.171 106.218   0.002   0.000  78.842

 ******    3 imaginary frequencies (negative Signs) ******

                      1                      2                      3
                      A                      A                      A
 Frequencies --   -343.5524              -242.8017              -155.1375
 Red. masses --      1.2050                 1.2342                 1.7176
 Frc consts  --      0.0838                 0.0429                 0.0244
 IR Inten    --     79.6976                 1.7409                 5.6844

                      4                      5                      6
                      A                      A                      A
 Frequencies --     16.1035                79.9475                95.7002
 Red. masses --      6.2679                 3.4625                 5.4019
 Frc consts  --      0.0010                 0.0130                 0.0291
 IR Inten    --      6.9558                 2.0685                10.1875

                      7                      8                      9
                      A                      A                      A
 Frequencies --    122.4020               225.1267               234.8336
 Red. masses --      2.5805                 5.6978                 2.4614
 Frc consts  --      0.0228                 0.1701                 0.0800
 IR Inten    --      0.0243                 2.6306                 5.2370

                     10                     11                     12
                      A                      A                      A
 Frequencies --    302.3010               383.2119               436.7019
 Red. masses --      5.0681                 3.2354                 3.4663
 Frc consts  --      0.2729                 0.2799                 0.3895
 IR Inten    --      2.1308                 0.5661                 1.0230

                     13                     14                     15
                      A                      A                      A
 Frequencies --    541.2662               609.0502               620.8557
 Red. masses --      9.7135                 3.1746                 4.5156
 Frc consts  --      1.6767                 0.6938                 1.0255
 IR Inten    --      5.8421                 8.6686                26.0798

                     16                     17                     18
                      A                      A                      A
 Frequencies --    756.6146               804.1152               810.7602
 Red. masses --      1.2388                 1.1153                 4.1056
 Frc consts  --      0.4178                 0.4249                 1.5901
 IR Inten    --      1.1249                 0.0472                 2.8849

                     19                     20                     21
                      A                      A                      A
 Frequencies --    873.5198              1014.8661              1048.3765
 Red. masses --      1.3981                 3.0899                 2.3222
 Frc consts  --      0.6285                 1.8751                 1.5038
 IR Inten    --     33.5847                64.1598                70.7884

                     22                     23                     24
                      A                      A                      A
 Frequencies --   1086.2429              1121.9103              1149.0271
 Red. masses --      3.7381                 1.2632                 1.5815
 Frc consts  --      2.5987                 0.9368                 1.2302
 IR Inten    --     12.2929                 0.0131                 0.3387

                     25                     26                     27
                      A                      A                      A
 Frequencies --   1184.8169              1210.5632              1252.4707
 Red. masses --      1.7453                 3.1378                 1.1123
 Frc consts  --      1.4435                 2.7093                 1.0281
 IR Inten    --     26.1356                43.7461                 0.1221

                     28                     29                     30
                      A                      A                      A
 Frequencies --   1270.9245              1309.5173              1315.5318
 Red. masses --      2.8801                 1.0650                 2.8481
 Frc consts  --      2.7410                 1.0760                 2.9040
 IR Inten    --     31.4306                 0.1323                20.6785

                     31                     32                     33
                      A                      A                      A
 Frequencies --   1365.2051              1422.6095              1441.5997
 Red. masses --      1.6109                 1.4541                 1.1951
 Frc consts  --      1.7689                 1.7339                 1.4633
 IR Inten    --     15.7339                51.9564                12.5055

                     34                     35                     36
                      A                      A                      A
 Frequencies --   1473.7944              1482.9158              1505.6383
 Red. masses --      1.4556                 1.0410                 1.1451
 Frc consts  --      1.8628                 1.3488                 1.5295
 IR Inten    --     61.7602                 6.6092                 6.3457

                     37                     38                     39
                      A                      A                      A
 Frequencies --   1511.4602              1530.8893              1540.4144
 Red. masses --      1.0903                 1.0793                 1.0782
 Frc consts  --      1.4675                 1.4903                 1.5074
 IR Inten    --     13.2921                 0.8998                23.8966

                     40                     41                     42
                      A                      A                      A
 Frequencies --   1679.8355              2347.6840              2988.0404
 Red. masses --      5.8325                12.4142                 1.0560
 Frc consts  --      9.6970                40.3134                 5.5553
 IR Inten    --     82.6110               189.9017                55.8522

                     43                     44                     45
                      A                      A                      A
 Frequencies --   3010.6791              3013.0125              3035.2061
 Red. masses --      1.0424                 1.1056                 1.0553
 Frc consts  --      5.5670                 5.9133                 5.7278
 IR Inten    --     41.0133                22.8536                49.9188

                     46                     47                     48
                      A                      A                      A
 Frequencies --   3054.8622              3076.9389              3086.9316
 Red. masses --      1.1043                 1.1080                 1.0613
 Frc consts  --      6.0718                 6.1807                 5.9589
 IR Inten    --     10.4746                47.1025                26.7245

                     49                     50                     51
                      A                      A                      A
 Frequencies --   3163.9150              3208.6925              3643.5622
 Red. masses --      1.0906                 1.1082                 1.0760
 Frc consts  --      6.4322                 6.7226                 8.4163
 IR Inten    --      7.7934                14.3472                48.0050

 - Thermochemistry -
 -------------------
 Temperature   298.150 Kelvin.  Pressure   1.00000 Atm.
 Atom     1 has atomic number  6 and mass  12.00000

 Molecular mass:   126.09055 amu.
 Principal axes and moments of inertia in atomic units:
                           1         2         3
     Eigenvalues --   269.522793146.610913382.20904
           X            0.99995   0.00982  -0.00000
           Y           -0.00982   0.99995   0.00001
           Z            0.00000  -0.00001   1.00000
 This molecule is an asymmetric top.
 Rotational symmetry number  1.
 Rotational temperatures (Kelvin)      0.32136     0.02753     0.02561
 Rotational constants (GHZ):           6.69606     0.57355     0.53360
    3 imaginary frequencies ignored.
 Zero-point vibrational energy     409485.6 (Joules/Mol)
                                   97.86940 (Kcal/Mol)
 Warning -- explicit consideration of  11 degrees of freedom as
           vibrations may cause significant error
 Vibrational temperatures:     23.17   115.03   137.69   176.11   323.91
          (Kelvin)            337.87   434.94   551.36   628.32   778.76
                              876.29   893.27  1088.60  1156.94  1166.50
                             1256.80  1460.17  1508.38  1562.86  1614.18
                             1653.19  1704.69  1741.73  1802.03  1828.58
                             1884.10  1892.76  1964.23  2046.82  2074.14
                             2120.46  2133.59  2166.28  2174.65  2202.61
                             2216.31  2416.91  3377.79  4299.12  4331.70
                             4335.05  4366.98  4395.27  4427.03  4441.41
                             4552.17  4616.59  5242.27

 Zero-point correction=                           0.155965 (Hartree/Particle)
 Thermal correction to Energy=                    0.165036
 Thermal correction to Enthalpy=                  0.165980
 Thermal correction to Gibbs Free Energy=         0.119742
 Sum of electronic and zero-point Energies=           -415.332094
 Sum of electronic and thermal Energies=              -415.323022
 Sum of electronic and thermal Enthalpies=            -415.322078
 Sum of electronic and thermal Free Energies=         -415.368316

                     E (Thermal)             CV                S
                      KCal/Mol        Cal/Mol-Kelvin    Cal/Mol-Kelvin
 Total                  103.562             30.955             97.316
 Electronic               0.000              0.000              0.000
 Translational            0.889              2.981             40.409
 Rotational               0.889              2.981             29.441
 Vibrational            101.784             24.994             27.466
 Vibration     1          0.593              1.986              7.065
 Vibration     2          0.600              1.963              3.892
 Vibration     3          0.603              1.952              3.540
 Vibration     4          0.610              1.930              3.062
 Vibration     5          0.650              1.803              1.917
 Vibration     6          0.655              1.788              1.842
 Vibration     7          0.694              1.669              1.404
 Vibration     8          0.752              1.506              1.026
 Vibration     9          0.797              1.390              0.837
 Vibration    10          0.896              1.159              0.563
 Vibration    11          0.968              1.013              0.434

                           ! Non-Optimized Parameters !
 Normal termination of Gaussian 16 at Tue Jun  1 18:59:43 2021.
