 Gaussian 16, Revision A.03,
 Gaussian 16:  ES64L-G16RevA.03 25-Dec-2016

 -----------------------------
 # opt freq b3lyp/6-31g(2df,p)
 -----------------------------

 -------------------
 Title Card Required
 -------------------
 Symbolic Z-matrix:
 Charge =  0 Multiplicity = 1

 SCF Done:  E(RB3LYP) =  -362.554365031     A.U. after   13 cycles
 SCF Done:  E(RB3LYP) =  -362.562413803     A.U. after   12 cycles
 SCF Done:  E(RB3LYP) =  -362.562880920     A.U. after   10 cycles
 SCF Done:  E(RB3LYP) =  -362.563070626     A.U. after   10 cycles
 SCF Done:  E(RB3LYP) =  -362.563401569     A.U. after   11 cycles
 SCF Done:  E(RB3LYP) =  -362.528786570     A.U. after   12 cycles
 SCF Done:  E(RB3LYP) =  -362.563875051     A.U. after   12 cycles
 SCF Done:  E(RB3LYP) =  -362.564529608     A.U. after   10 cycles
 SCF Done:  E(RB3LYP) =  -362.566461772     A.U. after   11 cycles
 SCF Done:  E(RB3LYP) =  -362.567918727     A.U. after   12 cycles
 SCF Done:  E(RB3LYP) =  -362.574045737     A.U. after   10 cycles
 SCF Done:  E(RB3LYP) =  -362.574057954     A.U. after   10 cycles
 SCF Done:  E(RB3LYP) =  -362.574062633     A.U. after    9 cycles
 SCF Done:  E(RB3LYP) =  -362.574064612     A.U. after    8 cycles
 SCF Done:  E(RB3LYP) =  -362.574064893     A.U. after    7 cycles
 SCF Done:  E(RB3LYP) =  -362.574065112     A.U. after    7 cycles
 SCF Done:  E(RB3LYP) =  -362.574065166     A.U. after    7 cycles
 SCF Done:  E(RB3LYP) =  -362.574065234     A.U. after    7 cycles
 SCF Done:  E(RB3LYP) =  -362.574065257     A.U. after    7 cycles
 Optimization completed.
    -- Stationary point found.
 Normal termination of Gaussian 16 at Tue Jun  1 08:01:54 2021.

 ----------------------------------------------------------------------
 #N Geom=AllCheck Guess=TCheck SCRF=Check GenChk RB3LYP/6-31G(2df,p) Fr
 eq
 ----------------------------------------------------------------------

 Structure from the checkpoint file:  "CdNNpCpCCNC.chk"
 -------------------
 Title Card Required
 -------------------
 Charge =  0 Multiplicity = 1

                         Standard orientation:
 ---------------------------------------------------------------------
 Center     Atomic      Atomic             Coordinates (Angstroms)
 Number     Number       Type             X           Y           Z
 ---------------------------------------------------------------------
      1          6           0        3.302389   -0.660882    0.347914
      2          7           0        2.074042   -0.883035    0.053634
      3          7           0        1.191648    0.124591   -0.055802
      4          6           0        1.629715    1.503203   -0.065172
      5          6           0       -0.084583   -0.224682   -0.657879
      6          6           0       -1.275415    0.057320    0.264735
      7          7           0       -2.524075   -0.267081   -0.409679
      8          6           0       -3.705122    0.004868    0.398171
      9          1           0        3.944327   -1.529299    0.444018
     10          1           0        3.740995    0.321147    0.520125
     11          1           0        2.063138    1.790705    0.900946
     12          1           0        0.771808    2.148906   -0.258068
     13          1           0        2.390144    1.682423   -0.842775
     14          1           0       -0.031906   -1.292741   -0.883522
     15          1           0       -0.233996    0.307878   -1.608002
     16          1           0       -1.300775    1.125367    0.520844
     17          1           0       -1.127105   -0.486730    1.216055
     18          1           0       -2.516564   -1.248680   -0.669848
     19          1           0       -3.788134    1.084160    0.570899
     20          1           0       -3.703360   -0.488818    1.386821
     21          1           0       -4.601778   -0.314603   -0.141185
 ---------------------------------------------------------------------

 SCF Done:  E(RB3LYP) =  -362.574065257     A.U. after    1 cycles

 The electronic state is 1-A.
 Alpha  occ. eigenvalues --  -14.36351 -14.34946 -14.31291 -10.21396 -10.20850
 Alpha  occ. eigenvalues --  -10.20208 -10.19920 -10.18740  -1.00195  -0.90037
 Alpha  occ. eigenvalues --   -0.83158  -0.74287  -0.70084  -0.65199  -0.60896
 Alpha  occ. eigenvalues --   -0.55465  -0.50807  -0.49201  -0.48532  -0.45155
 Alpha  occ. eigenvalues --   -0.43877  -0.42753  -0.41214  -0.39905  -0.38798
 Alpha  occ. eigenvalues --   -0.36879  -0.36385  -0.34585  -0.33582  -0.25936
 Alpha  occ. eigenvalues --   -0.22200  -0.20174
 Alpha virt. eigenvalues --    0.02574   0.08386   0.09310   0.11902   0.12446
 Alpha virt. eigenvalues --    0.13768   0.14770   0.15184   0.16121   0.16772
 Alpha virt. eigenvalues --    0.17448   0.18014   0.19130   0.19826   0.21386

 Mulliken charges:
               1
     1  C   -0.268082
     2  N   -0.086953
     3  N    0.016281
     4  C   -0.342361
     5  C   -0.152859
     6  C   -0.123581
     7  N   -0.279891
     8  C   -0.308333
     9  H    0.111791
    10  H    0.092858
    11  H    0.131204
    12  H    0.132314
    13  H    0.121314
    14  H    0.118274
    15  H    0.106014
    16  H    0.097004
    17  H    0.086288
    18  H    0.216723
    19  H    0.120570
    20  H    0.094307
    21  H    0.117119
 Sum of Mulliken charges =  -0.00000

 Dipole moment (field-independent basis, Debye):
    X=             -0.5670    Y=              1.1130    Z=              0.2817  Tot=              1.2805
 Quadrupole moment (field-independent basis, Debye-Ang):
   XX=            -48.5002   YY=            -48.9410   ZZ=            -52.6315
   XY=              4.8752   XZ=             -0.8552   YZ=              0.9792

  Exact polarizability: 112.154  -5.355  73.048   5.557  -0.196  60.502
 Approx polarizability: 141.436  -8.148 107.068  10.812  -0.063  90.826

                      1                      2                      3
                      A                      A                      A
 Frequencies --     21.6116                79.5623                85.3544
 Red. masses --      3.0707                 2.6523                 1.9633
 Frc consts  --      0.0008                 0.0099                 0.0084
 IR Inten    --      0.0621                 3.1347                 5.7388

                      4                      5                      6
                      A                      A                      A
 Frequencies --    125.9472               188.7140               236.9607
 Red. masses --      2.4427                 2.0399                 1.3793
 Frc consts  --      0.0228                 0.0428                 0.0456
 IR Inten    --      0.4631                 2.6189                 2.2608

                      7                      8                      9
                      A                      A                      A
 Frequencies --    252.1639               303.1405               311.7588
 Red. masses --      1.2400                 2.1470                 3.4338
 Frc consts  --      0.0465                 0.1162                 0.1966
 IR Inten    --      1.8237                 3.6618                 1.1229

                     10                     11                     12
                      A                      A                      A
 Frequencies --    355.2169               401.2076               453.9464
 Red. masses --      2.7343                 2.7284                 2.6618
 Frc consts  --      0.2033                 0.2588                 0.3232
 IR Inten    --      2.3876                 3.2911                 6.2225

                     13                     14                     15
                      A                      A                      A
 Frequencies --    626.0591               777.5975               780.4685
 Red. masses --      2.7467                 1.2078                 1.2819
 Frc consts  --      0.6343                 0.4303                 0.4601
 IR Inten    --     25.7594                17.2548                58.8961

                     16                     17                     18
                      A                      A                      A
 Frequencies --    805.3332               829.2698               870.9933
 Red. masses --      1.2225                 3.4002                 1.4049
 Frc consts  --      0.4671                 1.3777                 0.6280
 IR Inten    --     11.2043                 5.0331                34.0223

                     19                     20                     21
                      A                      A                      A
 Frequencies --    991.9919              1036.1462              1065.0897
 Red. masses --      2.0007                 2.6714                 1.8698
 Frc consts  --      1.1600                 1.6898                 1.2497
 IR Inten    --      5.9568                 6.2466                16.2599

                     22                     23                     24
                      A                      A                      A
 Frequencies --   1068.4018              1119.8246              1137.0284
 Red. masses --      1.6589                 1.4123                 1.3449
 Frc consts  --      1.1157                 1.0435                 1.0244
 IR Inten    --     63.3909                23.8764                 5.5206

                     25                     26                     27
                      A                      A                      A
 Frequencies --   1147.4143              1183.1943              1202.4733
 Red. masses --      2.5209                 2.0834                 1.6192
 Frc consts  --      1.9555                 1.7185                 1.3794
 IR Inten    --     29.0293                31.3833                22.6687

                     28                     29                     30
                      A                      A                      A
 Frequencies --   1256.0811              1296.6795              1329.8541
 Red. masses --      1.7560                 1.3912                 1.8253
 Frc consts  --      1.6323                 1.3782                 1.9020
 IR Inten    --     27.5675                 5.2825                 2.3193

                     31                     32                     33
                      A                      A                      A
 Frequencies --   1339.7770              1356.6617              1413.0382
 Red. masses --      1.9004                 1.5160                 1.4487
 Frc consts  --      2.0098                 1.6440                 1.7043
 IR Inten    --     28.7042                28.5819                 6.8877

                     34                     35                     36
                      A                      A                      A
 Frequencies --   1437.7884              1459.9123              1473.6210
 Red. masses --      1.1976                 1.1742                 1.0547
 Frc consts  --      1.4587                 1.4745                 1.3494
 IR Inten    --      7.2415                 5.2350                 6.3564

                     37                     38                     39
                      A                      A                      A
 Frequencies --   1481.8133              1486.7895              1493.8413
 Red. masses --      1.1120                 1.0890                 1.1517
 Frc consts  --      1.4385                 1.4183                 1.5142
 IR Inten    --      5.9476                13.2663                 3.4945

                     40                     41                     42
                      A                      A                      A
 Frequencies --   1496.1767              1514.9223              1520.2335
 Red. masses --      1.1410                 1.0820                 1.0849
 Frc consts  --      1.5049                 1.4630                 1.4773
 IR Inten    --      0.8090                 9.1985                21.5965

                     43                     44                     45
                      A                      A                      A
 Frequencies --   1523.5027              1658.3646              2931.7990
 Red. masses --      1.0909                 5.2458                 1.0705
 Frc consts  --      1.4918                 8.5000                 5.4212
 IR Inten    --     11.8961                74.8518                37.3800

                     46                     47                     48
                      A                      A                      A
 Frequencies --   2942.8435              2973.2045              3004.5810
 Red. masses --      1.0601                 1.0505                 1.0689
 Frc consts  --      5.4093                 5.4716                 5.6851
 IR Inten    --    109.6678                39.9018                63.0772

                     49                     50                     51
                      A                      A                      A
 Frequencies --   3025.4327              3041.9431              3052.5455
 Red. masses --      1.0869                 1.0887                 1.0743
 Frc consts  --      5.8617                 5.9358                 5.8979
 IR Inten    --     25.6916                27.5385                41.1688

                     52                     53                     54
                      A                      A                      A
 Frequencies --   3100.8528              3101.8749              3103.9456
 Red. masses --      1.1008                 1.0748                 1.0765
 Frc consts  --      6.2362                 6.0932                 6.1108
 IR Inten    --     32.4777                 1.0800                31.7926

                     55                     56                     57
                      A                      A                      A
 Frequencies --   3133.3188              3213.2383              3507.2582
 Red. masses --      1.0957                 1.1120                 1.0734
 Frc consts  --      6.3379                 6.7649                 7.7797
 IR Inten    --     13.1557                15.8321                 0.2289

 - Thermochemistry -
 -------------------
 Temperature   298.150 Kelvin.  Pressure   1.00000 Atm.
 Atom     1 has atomic number  6 and mass  12.00000

 Molecular mass:   115.11095 amu.
 Principal axes and moments of inertia in atomic units:
                           1         2         3
     Eigenvalues --   308.536552276.969172429.77205
           X            0.99993   0.01048  -0.00540
           Y           -0.01040   0.99985   0.01370
           Z            0.00554  -0.01364   0.99989
 This molecule is an asymmetric top.
 Rotational symmetry number  1.
 Rotational temperatures (Kelvin)      0.28073     0.03804     0.03565
 Rotational constants (GHZ):           5.84936     0.79261     0.74276
 Zero-point vibrational energy     491239.1 (Joules/Mol)
                                  117.40896 (Kcal/Mol)
 Warning -- explicit consideration of  12 degrees of freedom as
           vibrations may cause significant error
 Vibrational temperatures:     31.09   114.47   122.81   181.21   271.52
          (Kelvin)            340.93   362.81   436.15   448.55   511.08
                              577.25   653.13   900.76  1118.79  1122.92
                             1158.69  1193.13  1253.17  1427.26  1490.78
                             1532.43  1537.19  1611.18  1635.93  1650.87
                             1702.35  1730.09  1807.22  1865.63  1913.36
                             1927.64  1951.93  2033.05  2068.66  2100.49
                             2120.21  2132.00  2139.16  2149.30  2152.66
                             2179.64  2187.28  2191.98  2386.02  4218.20
                             4234.10  4277.78  4322.92  4352.92  4376.68
                             4391.93  4461.44  4462.91  4465.89  4508.15
                             4623.13  5046.16

 Zero-point correction=                           0.187103 (Hartree/Particle)
 Thermal correction to Energy=                    0.197232
 Thermal correction to Enthalpy=                  0.198177
 Thermal correction to Gibbs Free Energy=         0.150720
 Sum of electronic and zero-point Energies=           -362.386962
 Sum of electronic and thermal Energies=              -362.376833
 Sum of electronic and thermal Enthalpies=            -362.375889
 Sum of electronic and thermal Free Energies=         -362.423345

                     E (Thermal)             CV                S
                      KCal/Mol        Cal/Mol-Kelvin    Cal/Mol-Kelvin
 Total                  123.765             35.188             99.880
 Electronic               0.000              0.000              0.000
 Translational            0.889              2.981             40.137
 Rotational               0.889              2.981             28.925
 Vibrational            121.988             29.226             30.818
 Vibration     1          0.593              1.985              6.480
 Vibration     2          0.600              1.963              3.902
 Vibration     3          0.601              1.959              3.764
 Vibration     4          0.611              1.927              3.007
 Vibration     5          0.633              1.855              2.240
 Vibration     6          0.656              1.784              1.826
 Vibration     7          0.664              1.759              1.715
 Vibration     8          0.695              1.668              1.400
 Vibration     9          0.700              1.651              1.353
 Vibration    10          0.731              1.565              1.143
 Vibration    11          0.767              1.468              0.958
 Vibration    12          0.812              1.352              0.784

 Optimization completed.
    -- Stationary point found.
 Normal termination of Gaussian 16 at Tue Jun  1 08:24:42 2021.
