 Gaussian 16, Revision A.03,
 Gaussian 16:  ES64L-G16RevA.03 25-Dec-2016

 -----------------------------
 # opt freq b3lyp/6-31g(2df,p)
 -----------------------------

 -------------------
 Title Card Required
 -------------------
 Symbolic Z-matrix:
 Charge =  0 Multiplicity = 1

 SCF Done:  E(RB3LYP) =  -376.157960512     A.U. after   14 cycles
 SCF Done:  E(RB3LYP) =  -376.167425387     A.U. after   13 cycles
 SCF Done:  E(RB3LYP) =  -376.167832497     A.U. after   12 cycles
 SCF Done:  E(RB3LYP) =  -376.168260175     A.U. after   11 cycles
 SCF Done:  E(RB3LYP) =  -376.168275012     A.U. after   10 cycles
 SCF Done:  E(RB3LYP) =  -376.168279312     A.U. after    8 cycles
 SCF Done:  E(RB3LYP) =  -376.168280684     A.U. after    8 cycles
 SCF Done:  E(RB3LYP) =  -376.169239721     A.U. after   13 cycles
 SCF Done:  E(RB3LYP) =  -376.169448422     A.U. after   15 cycles
 SCF Done:  E(RB3LYP) =  -376.173791632     A.U. after   14 cycles
 SCF Done:  E(RB3LYP) =  -376.191282512     A.U. after   12 cycles
 SCF Done:  E(RB3LYP) =  -376.191373641     A.U. after   11 cycles
 SCF Done:  E(RB3LYP) =  -376.191428763     A.U. after   11 cycles
 SCF Done:  E(RB3LYP) =  -376.191442236     A.U. after   11 cycles
 SCF Done:  E(RB3LYP) =  -376.191444402     A.U. after    9 cycles
 SCF Done:  E(RB3LYP) =  -376.191445695     A.U. after    9 cycles
 SCF Done:  E(RB3LYP) =  -376.191447722     A.U. after   10 cycles
 SCF Done:  E(RB3LYP) =  -376.191448219     A.U. after    9 cycles
 SCF Done:  E(RB3LYP) =  -376.191448378     A.U. after    8 cycles
 Optimization completed.
    -- Stationary point found.
 Normal termination of Gaussian 16 at Tue Jun  1 19:29:14 2021.

 ----------------------------------------------------------------------
 #N Geom=AllCheck Guess=TCheck SCRF=Check GenChk RB3LYP/6-31G(2df,p) Fr
 eq
 ----------------------------------------------------------------------

 Structure from the checkpoint file:  "CdNNpCpCNCtN.chk"
 -------------------
 Title Card Required
 -------------------
 Charge =  0 Multiplicity = 1

                         Standard orientation:
 ---------------------------------------------------------------------
 Center     Atomic      Atomic             Coordinates (Angstroms)
 Number     Number       Type             X           Y           Z
 ---------------------------------------------------------------------
      1          6           0       -2.801913   -0.716172    0.460579
      2          7           0       -1.731017   -0.799512   -0.232419
      3          7           0       -0.975495    0.302217   -0.486613
      4          6           0       -1.191860    1.536268    0.250279
      5          6           0        0.360805   -0.044210   -0.869060
      6          7           0        1.195002   -0.420272    0.298642
      7          6           0        2.512886   -0.208665    0.263658
      8          7           0        3.650585    0.028343    0.240159
      9          1           0       -3.375286   -1.628518    0.584276
     10          1           0       -3.185808    0.195192    0.916881
     11          1           0       -2.175131    1.952727    0.008898
     12          1           0       -0.431568    2.260218   -0.045878
     13          1           0       -1.132517    1.386869    1.338180
     14          1           0        0.850185    0.807313   -1.344920
     15          1           0        0.292477   -0.873572   -1.577702
     16          1           0        0.904621   -1.278986    0.749151
 ---------------------------------------------------------------------

 SCF Done:  E(RB3LYP) =  -376.191448378     A.U. after    1 cycles

 The electronic state is 1-A.
 Alpha  occ. eigenvalues --  -14.38895 -14.38410 -14.37485 -14.31080 -10.27223
 Alpha  occ. eigenvalues --  -10.23625 -10.23038 -10.21752  -1.03193  -0.96520
 Alpha  occ. eigenvalues --   -0.87836  -0.85006  -0.74621  -0.69192  -0.59997
 Alpha  occ. eigenvalues --   -0.58347  -0.53249  -0.52985  -0.49822  -0.45532
 Alpha  occ. eigenvalues --   -0.44332  -0.41870  -0.41399  -0.37580  -0.37192
 Alpha  occ. eigenvalues --   -0.34884  -0.32338  -0.28622  -0.25719  -0.23804
 Alpha virt. eigenvalues --   -0.00633   0.04030   0.06816   0.08314   0.08761
 Alpha virt. eigenvalues --    0.10355   0.12324   0.13803   0.14199   0.15473
 Alpha virt. eigenvalues --    0.15780   0.19087   0.21246   0.22089   0.23462

 Mulliken charges:
               1
     1  C   -0.250573
     2  N   -0.096739
     3  N    0.012536
     4  C   -0.340962
     5  C   -0.127475
     6  N   -0.382649
     7  C    0.314627
     8  N   -0.335879
     9  H    0.126420
    10  H    0.108778
    11  H    0.140107
    12  H    0.141579
    13  H    0.132416
    14  H    0.140794
    15  H    0.142787
    16  H    0.274233
 Sum of Mulliken charges =  -0.00000

 Dipole moment (field-independent basis, Debye):
    X=             -4.5635    Y=              0.3680    Z=              0.2659  Tot=              4.5860
 Quadrupole moment (field-independent basis, Debye-Ang):
   XX=            -65.5347   YY=            -43.9325   ZZ=            -46.7256
   XY=             -3.2374   XZ=             -4.0885   YZ=             -1.7597

  Exact polarizability: 103.887   9.422  60.356  -8.331  -1.166  50.812
 Approx polarizability: 148.972  17.668  87.756 -16.933  -3.793  79.737

                      1                      2                      3
                      A                      A                      A
 Frequencies --     34.7685                61.2972               141.4930
 Red. masses --      5.2198                 4.0616                 2.9782
 Frc consts  --      0.0037                 0.0090                 0.0351
 IR Inten    --      8.1961                 2.3203                 7.9544

                      4                      5                      6
                      A                      A                      A
 Frequencies --    184.3648               226.2953               271.5138
 Red. masses --      5.6968                 1.2905                 2.2096
 Frc consts  --      0.1141                 0.0389                 0.0960
 IR Inten    --      8.6452                 0.0098                 4.8226

                      7                      8                      9
                      A                      A                      A
 Frequencies --    343.9334               420.1082               429.1055
 Red. masses --      2.3262                 1.9467                 2.5424
 Frc consts  --      0.1621                 0.2024                 0.2758
 IR Inten    --      0.7132                10.1988                11.1455

                     10                     11                     12
                      A                      A                      A
 Frequencies --    488.6942               546.8603               612.3207
 Red. masses --      3.3715                10.5517                 2.3595
 Frc consts  --      0.4744                 1.8592                 0.5212
 IR Inten    --     25.1794                 9.9398                90.7181

                     13                     14                     15
                      A                      A                      A
 Frequencies --    633.0638               795.0219               829.4903
 Red. masses --      2.3056                 1.3570                 3.4867
 Frc consts  --      0.5444                 0.5053                 1.4135
 IR Inten    --     19.5880                 1.8081                11.4661

                     16                     17                     18
                      A                      A                      A
 Frequencies --    920.8927               934.4314              1032.3391
 Red. masses --      1.3786                 2.9180                 2.8622
 Frc consts  --      0.6888                 1.5012                 1.7972
 IR Inten    --     27.6075                16.4225               140.3328

                     19                     20                     21
                      A                      A                      A
 Frequencies --   1064.3311              1125.4400              1148.8368
 Red. masses --      1.7841                 1.9391                 1.9140
 Frc consts  --      1.1907                 1.4471                 1.4883
 IR Inten    --     31.7658                43.6090                53.4157

                     22                     23                     24
                      A                      A                      A
 Frequencies --   1183.6283              1229.5212              1323.4553
 Red. masses --      1.9042                 1.6756                 2.4055
 Frc consts  --      1.5718                 1.4924                 2.4824
 IR Inten    --     15.7065                13.2929                67.9912

                     25                     26                     27
                      A                      A                      A
 Frequencies --   1361.7139              1404.7655              1439.7127
 Red. masses --      1.9330                 1.2044                 1.2086
 Frc consts  --      2.1118                 1.4003                 1.4760
 IR Inten    --     10.6545                28.2011                 5.3497

                     28                     29                     30
                      A                      A                      A
 Frequencies --   1454.0112              1477.3005              1478.7323
 Red. masses --      1.2643                 1.0930                 1.0609
 Frc consts  --      1.5748                 1.4055                 1.3668
 IR Inten    --     81.1077                 5.7193                 8.3824

                     31                     32                     33
                      A                      A                      A
 Frequencies --   1492.0414              1517.0056              1675.6492
 Red. masses --      1.1543                 1.0942                 5.5112
 Frc consts  --      1.5140                 1.4837                 9.1172
 IR Inten    --      3.5693                23.2538                36.0027

                     34                     35                     36
                      A                      A                      A
 Frequencies --   2343.1691              3001.4648              3069.2013
 Red. masses --     12.3096                 1.0460                 1.0595
 Frc consts  --     39.8200                 5.5518                 5.8802
 IR Inten    --    174.3114                26.6120                18.2857

                     37                     38                     39
                      A                      A                      A
 Frequencies --   3075.3725              3106.8057              3131.8422
 Red. masses --      1.0915                 1.0577                 1.1074
 Frc consts  --      6.0824                 6.0152                 6.3995
 IR Inten    --     24.5933                13.8653                 4.4052

                     40                     41                     42
                      A                      A                      A
 Frequencies --   3140.8841              3214.5742              3573.3165
 Red. masses --      1.0997                 1.1136                 1.0743
 Frc consts  --      6.3919                 6.7800                 8.0823
 IR Inten    --     12.8501                11.7980                33.9004

 - Thermochemistry -
 -------------------
 Temperature   298.150 Kelvin.  Pressure   1.00000 Atm.
 Atom     1 has atomic number  6 and mass  12.00000

 Molecular mass:   112.07490 amu.
 Principal axes and moments of inertia in atomic units:
                           1         2         3
     Eigenvalues --   326.609381809.526131942.63720
           X            0.99985  -0.00663  -0.01627
           Y            0.00680   0.99992   0.01047
           Z            0.01619  -0.01058   0.99981
 This molecule is an asymmetric top.
 Rotational symmetry number  1.
 Rotational temperatures (Kelvin)      0.26519     0.04787     0.04459
 Rotational constants (GHZ):           5.52569     0.99736     0.92902
 Zero-point vibrational energy     340569.5 (Joules/Mol)
                                   81.39806 (Kcal/Mol)
 Warning -- explicit consideration of  12 degrees of freedom as
           vibrations may cause significant error
 Vibrational temperatures:     50.02    88.19   203.58   265.26   325.59
          (Kelvin)            390.65   494.84   604.44   617.39   703.12
                              786.81   880.99   910.84  1143.86  1193.45
                             1324.96  1344.44  1485.31  1531.34  1619.26
                             1652.92  1702.98  1769.01  1904.16  1959.20
                             2021.14  2071.43  2092.00  2125.51  2127.57
                             2146.71  2182.63  2410.89  3371.30  4318.44
                             4415.90  4424.78  4470.00  4506.02  4519.03
                             4625.06  5141.21

 Zero-point correction=                           0.129716 (Hartree/Particle)
 Thermal correction to Energy=                    0.138555
 Thermal correction to Enthalpy=                  0.139499
 Thermal correction to Gibbs Free Energy=         0.095194
 Sum of electronic and zero-point Energies=           -376.061732
 Sum of electronic and thermal Energies=              -376.052893
 Sum of electronic and thermal Enthalpies=            -376.051949
 Sum of electronic and thermal Free Energies=         -376.096254

                     E (Thermal)             CV                S
                      KCal/Mol        Cal/Mol-Kelvin    Cal/Mol-Kelvin
 Total                   86.945             30.669             93.249
 Electronic               0.000              0.000              0.000
 Translational            0.889              2.981             40.058
 Rotational               0.889              2.981             28.531
 Vibrational             85.167             24.707             24.660
 Vibration     1          0.594              1.983              5.537
 Vibration     2          0.597              1.973              4.415
 Vibration     3          0.615              1.912              2.784
 Vibration     4          0.631              1.861              2.284
 Vibration     5          0.650              1.801              1.908
 Vibration     6          0.675              1.726              1.587
 Vibration     7          0.723              1.588              1.194
 Vibration     8          0.783              1.427              0.892
 Vibration     9          0.790              1.407              0.862
 Vibration    10          0.845              1.275              0.687
 Vibration    11          0.902              1.147              0.551
 Vibration    12          0.972              1.006              0.429

 Optimization completed.
    -- Stationary point found.
 Normal termination of Gaussian 16 at Tue Jun  1 19:46:51 2021.
