 Gaussian 16, Revision A.03,
 Gaussian 16:  ES64L-G16RevA.03 25-Dec-2016

 -----------------------------
 # opt freq b3lyp/6-31g(2df,p)
 -----------------------------

 -------------------
 Title Card Required
 -------------------
 Symbolic Z-matrix:
 Charge =  0 Multiplicity = 1

 SCF Done:  E(RB3LYP) =  -437.228468731     A.U. after   14 cycles
 SCF Done:  E(RB3LYP) =  -437.243245154     A.U. after   13 cycles
 SCF Done:  E(RB3LYP) =  -437.243861465     A.U. after   12 cycles
 SCF Done:  E(RB3LYP) =  -437.243987232     A.U. after   10 cycles
 SCF Done:  E(RB3LYP) =  -437.243993211     A.U. after    9 cycles
 SCF Done:  E(RB3LYP) =  -437.243993635     A.U. after    7 cycles
 SCF Done:  E(RB3LYP) =  -437.243993733     A.U. after    7 cycles
 SCF Done:  E(RB3LYP) =  -437.243999807     A.U. after   10 cycles
 SCF Done:  E(RB3LYP) =  -437.212197664     A.U. after   13 cycles
 SCF Done:  E(RB3LYP) =  -437.198304938     A.U. after   13 cycles
 SCF Done:  E(RB3LYP) =  -437.260346606     A.U. after    9 cycles
 SCF Done:  E(RB3LYP) =  -437.260511602     A.U. after   12 cycles
 SCF Done:  E(RB3LYP) =  -437.260578271     A.U. after   11 cycles
 SCF Done:  E(RB3LYP) =  -437.260599047     A.U. after   10 cycles
 SCF Done:  E(RB3LYP) =  -437.260604493     A.U. after   10 cycles
 SCF Done:  E(RB3LYP) =  -437.260605308     A.U. after    8 cycles
 SCF Done:  E(RB3LYP) =  -437.260605430     A.U. after    7 cycles
 SCF Done:  E(RB3LYP) =  -437.260605532     A.U. after    7 cycles
 SCF Done:  E(RB3LYP) =  -437.260605596     A.U. after    7 cycles
 Optimization completed.
    -- Stationary point found.
 Normal termination of Gaussian 16 at Mon May 31 23:39:39 2021.

 ----------------------------------------------------------------------
 #N Geom=AllCheck Guess=TCheck SCRF=Check GenChk RB3LYP/6-31G(2df,p) Fr
 eq
 ----------------------------------------------------------------------

 Structure from the checkpoint file:  "CdNNCCpdNpNF.chk"
 -------------------
 Title Card Required
 -------------------
 Charge =  0 Multiplicity = 1

                         Standard orientation:
 ---------------------------------------------------------------------
 Center     Atomic      Atomic             Coordinates (Angstroms)
 Number     Number       Type             X           Y           Z
 ---------------------------------------------------------------------
      1          6           0        3.665591    0.051484    0.178654
      2          7           0        2.569852   -0.268215   -0.386736
      3          7           0        1.400843    0.172586    0.160948
      4          6           0        0.251109   -0.656328   -0.139064
      5          6           0       -1.035597    0.161158   -0.051165
      6          7           0       -1.158251    1.414253   -0.168110
      7          7           0       -2.123317   -0.667860    0.278060
      8          9           0       -3.341205   -0.050098    0.020221
      9          1           0        4.590770   -0.251865   -0.298162
     10          1           0        3.722013    0.623901    1.110942
     11          1           0        1.460550    0.460103    1.137516
     12          1           0        0.176219   -1.543097    0.510307
     13          1           0        0.387017   -1.019100   -1.163478
     14          1           0       -0.232856    1.815718   -0.330580
     15          1           0       -2.143366   -1.528007   -0.268209
 ---------------------------------------------------------------------

 SCF Done:  E(RB3LYP) =  -437.260605596     A.U. after    1 cycles

 The electronic state is 1-A.
 Alpha  occ. eigenvalues --  -24.70298 -14.42476 -14.38168 -14.37475 -14.30433
 Alpha  occ. eigenvalues --  -10.26450 -10.24258 -10.21810  -1.21886  -1.01718
 Alpha  occ. eigenvalues --   -0.93875  -0.85188  -0.84126  -0.71063  -0.62839
 Alpha  occ. eigenvalues --   -0.60779  -0.55563  -0.52536  -0.50139  -0.48567
 Alpha  occ. eigenvalues --   -0.47771  -0.45901  -0.42941  -0.42388  -0.38692
 Alpha  occ. eigenvalues --   -0.37670  -0.33440  -0.28864  -0.27190  -0.25660
 Alpha  occ. eigenvalues --   -0.24078
 Alpha virt. eigenvalues --   -0.00755   0.01111   0.05105   0.07234   0.07735
 Alpha virt. eigenvalues --    0.11274   0.13720   0.14326   0.16397   0.17234
 Alpha virt. eigenvalues --    0.19057   0.22488   0.25120   0.29672   0.32948

 Mulliken charges:
               1
     1  C   -0.236533
     2  N   -0.040771
     3  N   -0.260007
     4  C   -0.214657
     5  C    0.320250
     6  N   -0.460347
     7  N   -0.181272
     8  F   -0.156162
     9  H    0.130979
    10  H    0.099421
    11  H    0.231531
    12  H    0.117470
    13  H    0.154954
    14  H    0.231646
    15  H    0.263499
 Sum of Mulliken charges =  -0.00000

 Dipole moment (field-independent basis, Debye):
    X=              2.7250    Y=             -2.3373    Z=              0.7086  Tot=              3.6593
 Quadrupole moment (field-independent basis, Debye-Ang):
   XX=            -49.2890   YY=            -46.2021   ZZ=            -45.6011
   XY=              7.6040   XZ=              5.3652   YZ=              1.9986

  Exact polarizability:  97.260   3.144  58.208   0.991   2.630  44.090
 Approx polarizability: 125.196   3.009  96.819   2.764   2.938  69.609

                      1                      2                      3
                      A                      A                      A
 Frequencies --     44.5975                95.6014               120.8353
 Red. masses --      4.3944                 4.5063                 2.8752
 Frc consts  --      0.0051                 0.0243                 0.0247
 IR Inten    --      2.4551                 4.5224                13.1620

                      4                      5                      6
                      A                      A                      A
 Frequencies --    175.5939               207.7598               287.5540
 Red. masses --      3.5251                 4.3463                 5.1217
 Frc consts  --      0.0640                 0.1105                 0.2495
 IR Inten    --      1.0319                 7.3143                 2.9247

                      7                      8                      9
                      A                      A                      A
 Frequencies --    339.6063               372.9224               512.0897
 Red. masses --      6.3074                 3.7780                 2.4548
 Frc consts  --      0.4286                 0.3096                 0.3793
 IR Inten    --      0.6824                 3.8196                19.8878

                     10                     11                     12
                      A                      A                      A
 Frequencies --    570.1783               680.7654               706.0423
 Red. masses --      2.2431                 2.6819                 1.6247
 Frc consts  --      0.4297                 0.7323                 0.4772
 IR Inten    --     44.3466                 9.2680                58.9541

                     13                     14                     15
                      A                      A                      A
 Frequencies --    751.7932               796.7314               922.9090
 Red. masses --      1.8479                 1.3777                 1.2712
 Frc consts  --      0.6154                 0.5153                 0.6379
 IR Inten    --    194.0334                 8.9289                39.9433

                     16                     17                     18
                      A                      A                      A
 Frequencies --    937.2682               949.8360               976.6973
 Red. masses --      1.4058                 2.8930                 2.6017
 Frc consts  --      0.7276                 1.5378                 1.4623
 IR Inten    --     23.4168                14.5057                65.6586

                     19                     20                     21
                      A                      A                      A
 Frequencies --   1053.5434              1084.0801              1109.8506
 Red. masses --      2.3134                 1.9626                 2.6750
 Frc consts  --      1.5129                 1.3589                 1.9414
 IR Inten    --     21.8967                18.8407                99.2088

                     22                     23                     24
                      A                      A                      A
 Frequencies --   1173.4393              1203.8296              1285.6376
 Red. masses --      3.9288                 1.3723                 1.5137
 Frc consts  --      3.1874                 1.1717                 1.4741
 IR Inten    --     83.2086                18.0694                10.0521

                     25                     26                     27
                      A                      A                      A
 Frequencies --   1303.9847              1397.1144              1456.6590
 Red. masses --      1.4435                 1.5098                 1.1678
 Frc consts  --      1.4462                 1.7364                 1.4599
 IR Inten    --     80.7379                13.1959                 3.5010

                     28                     29                     30
                      A                      A                      A
 Frequencies --   1473.2534              1488.7981              1521.8306
 Red. masses --      1.3581                 1.0893                 1.2777
 Frc consts  --      1.7368                 1.4225                 1.7435
 IR Inten    --     40.9294                 6.3328                18.1425

                     31                     32                     33
                      A                      A                      A
 Frequencies --   1692.9656              1758.6977              2976.8475
 Red. masses --      6.0502                 8.3623                 1.0706
 Frc consts  --     10.2168                15.2391                 5.5896
 IR Inten    --     30.1000                97.4401                52.6229

                     34                     35                     36
                      A                      A                      A
 Frequencies --   3045.9084              3077.3361              3212.7326
 Red. masses --      1.0655                 1.0886                 1.1054
 Frc consts  --      5.8241                 6.0740                 6.7222
 IR Inten    --     26.6274                 4.6331                 8.2321

                     37                     38                     39
                      A                      A                      A
 Frequencies --   3443.1408              3468.4856              3484.1906
 Red. masses --      1.0740                 1.0731                 1.0763
 Frc consts  --      7.5015                 7.6063                 7.6982
 IR Inten    --      1.2787                 9.9835                 8.7129

 - Thermochemistry -
 -------------------
 Temperature   298.150 Kelvin.  Pressure   1.00000 Atm.
 Atom     1 has atomic number  6 and mass  12.00000

 Molecular mass:   118.06547 amu.
 Principal axes and moments of inertia in atomic units:
                           1         2         3
     Eigenvalues --   214.213892281.854022432.20871
           X            0.99995   0.00608   0.00796
           Y           -0.00636   0.99934   0.03589
           Z           -0.00774  -0.03594   0.99932
 This molecule is an asymmetric top.
 Rotational symmetry number  1.
 Rotational temperatures (Kelvin)      0.40433     0.03796     0.03561
 Rotational constants (GHZ):           8.42495     0.79091     0.74202
 Zero-point vibrational energy     306011.4 (Joules/Mol)
                                   73.13847 (Kcal/Mol)
 Warning -- explicit consideration of  10 degrees of freedom as
           vibrations may cause significant error
 Vibrational temperatures:     64.17   137.55   173.86   252.64   298.92
          (Kelvin)            413.73   488.62   536.55   736.78   820.36
                              979.47  1015.84  1081.66  1146.32  1327.86
                             1348.52  1366.60  1405.25  1515.81  1559.75
                             1596.83  1688.32  1732.04  1849.75  1876.14
                             2010.14  2095.81  2119.68  2142.05  2189.57
                             2435.80  2530.37  4283.02  4382.38  4427.60
                             4622.41  4953.91  4990.38  5012.97

 Zero-point correction=                           0.116554 (Hartree/Particle)
 Thermal correction to Energy=                    0.125114
 Thermal correction to Enthalpy=                  0.126058
 Thermal correction to Gibbs Free Energy=         0.082456
 Sum of electronic and zero-point Energies=           -437.144052
 Sum of electronic and thermal Energies=              -437.135492
 Sum of electronic and thermal Enthalpies=            -437.134548
 Sum of electronic and thermal Free Energies=         -437.178150

                     E (Thermal)             CV                S
                      KCal/Mol        Cal/Mol-Kelvin    Cal/Mol-Kelvin
 Total                   78.510             29.605             91.768
 Electronic               0.000              0.000              0.000
 Translational            0.889              2.981             40.213
 Rotational               0.889              2.981             28.565
 Vibrational             76.732             23.644             22.989
 Vibration     1          0.595              1.980              5.044
 Vibration     2          0.603              1.952              3.542
 Vibration     3          0.609              1.932              3.087
 Vibration     4          0.628              1.872              2.375
 Vibration     5          0.641              1.829              2.063
 Vibration     6          0.685              1.697              1.488
 Vibration     7          0.720              1.596              1.214
 Vibration     8          0.744              1.528              1.068
 Vibration     9          0.867              1.223              0.629
 Vibration    10          0.926              1.096              0.504

                           ! Non-Optimized Parameters !
 Normal termination of Gaussian 16 at Mon May 31 23:55:40 2021.
