 Gaussian 16, Revision A.03,
 Gaussian 16:  ES64L-G16RevA.03 25-Dec-2016

 -----------------------------
 # opt freq b3lyp/6-31g(2df,p)
 -----------------------------

 -------------------
 Title Card Required
 -------------------
 Symbolic Z-matrix:
 Charge =  0 Multiplicity = 1

 SCF Done:  E(RB3LYP) =  -360.116911661     A.U. after   15 cycles
 SCF Done:  E(RB3LYP) =  -360.144261543     A.U. after   13 cycles
 SCF Done:  E(RB3LYP) =  -360.145116115     A.U. after   11 cycles
 SCF Done:  E(RB3LYP) =  -360.145180667     A.U. after   11 cycles
 SCF Done:  E(RB3LYP) =  -360.145202462     A.U. after   10 cycles
 SCF Done:  E(RB3LYP) =  -360.145204955     A.U. after    8 cycles
 Optimization completed.
    -- Stationary point found.
 Normal termination of Gaussian 16 at Tue Jun  1 11:06:39 2021.

 ----------------------------------------------------------------------
 #N Geom=AllCheck Guess=TCheck SCRF=Check GenChk RB3LYP/6-31G(2df,p) Fr
 eq
 ----------------------------------------------------------------------

 Structure from the checkpoint file:  "CdNNpCpCCCtN.chk"
 -------------------
 Title Card Required
 -------------------
 Charge =  0 Multiplicity = 1

                         Standard orientation:
 ---------------------------------------------------------------------
 Center     Atomic      Atomic             Coordinates (Angstroms)
 Number     Number       Type             X           Y           Z
 ---------------------------------------------------------------------
      1          6           0       -3.183850   -0.655756   -0.000041
      2          7           0       -1.925707   -0.882321    0.000018
      3          7           0       -0.982515    0.070923    0.000005
      4          6           0       -1.237911    1.499384   -0.000088
      5          6           0        0.361586   -0.496872    0.000080
      6          6           0        1.474721    0.567187    0.000110
      7          6           0        2.791160   -0.066340    0.000268
      8          7           0        3.828570   -0.574229   -0.000297
      9          1           0       -3.830408   -1.526066   -0.000020
     10          1           0       -3.660284    0.325297   -0.000107
     11          1           0       -2.311721    1.675581   -0.000136
     12          1           0       -0.830984    1.995025   -0.890700
     13          1           0       -0.831050    1.995129    0.890497
     14          1           0        0.488500   -1.139067   -0.879840
     15          1           0        0.488426   -1.139006    0.880054
     16          1           0        1.405403    1.213451    0.881158
     17          1           0        1.405448    1.213428   -0.880969
 ---------------------------------------------------------------------

 SCF Done:  E(RB3LYP) =  -360.145204955     A.U. after    1 cycles

 The electronic state is 1-A.
 Alpha  occ. eigenvalues --  -14.37920 -14.36373 -14.33257 -10.24714 -10.23993
 Alpha  occ. eigenvalues --  -10.23197 -10.22634 -10.20011  -1.01486  -0.90738
 Alpha  occ. eigenvalues --   -0.85545  -0.79513  -0.73688  -0.66092  -0.57526
 Alpha  occ. eigenvalues --   -0.53724  -0.51106  -0.50877  -0.49233  -0.45573
 Alpha  occ. eigenvalues --   -0.41824  -0.41651  -0.41166  -0.40385  -0.36064
 Alpha  occ. eigenvalues --   -0.35660  -0.33028  -0.32841  -0.27022  -0.21081
 Alpha virt. eigenvalues --    0.01035   0.02847   0.03214   0.06426   0.10175
 Alpha virt. eigenvalues --    0.11011   0.12305   0.12414   0.14113   0.15188
 Alpha virt. eigenvalues --    0.17105   0.18154   0.20627   0.22769   0.22888

 Mulliken charges:
               1
     1  C   -0.273845
     2  N   -0.070966
     3  N   -0.026343
     4  C   -0.337964
     5  C   -0.084964
     6  C   -0.384401
     7  C    0.263250
     8  N   -0.294455
     9  H    0.120777
    10  H    0.095409
    11  H    0.145162
    12  H    0.129542
    13  H    0.129542
    14  H    0.133907
    15  H    0.133899
    16  H    0.160713
    17  H    0.160738
 Sum of Mulliken charges =  -0.00000

 Dipole moment (field-independent basis, Debye):
    X=             -3.1369    Y=              3.2530    Z=              0.0006  Tot=              4.5191
 Quadrupole moment (field-independent basis, Debye-Ang):
   XX=            -64.2198   YY=            -47.3190   ZZ=            -47.7589
   XY=              2.2024   XZ=              0.0028   YZ=             -0.0005

  Exact polarizability: 110.414   1.307  66.925  -0.003   0.001  47.479
 Approx polarizability: 155.044  -3.836  98.456  -0.011   0.006  73.246

 ******    2 imaginary frequencies (negative Signs) ******

                      1                      2                      3
                      A                      A                      A
 Frequencies --   -237.8084              -156.8065                72.4616
 Red. masses --      1.2909                 1.6565                 3.2995
 Frc consts  --      0.0430                 0.0240                 0.0102
 IR Inten    --      0.1087                 0.7204                 0.0000

                      4                      5                      6
                      A                      A                      A
 Frequencies --     97.4371               119.9945               233.9679
 Red. masses --      3.7222                 5.8291                 2.4304
 Frc consts  --      0.0208                 0.0495                 0.0784
 IR Inten    --      8.1128                 4.8089                 5.2526

                      7                      8                      9
                      A                      A                      A
 Frequencies --    255.1926               359.5723               405.5606
 Red. masses --      4.7309                 3.7778                 3.5466
 Frc consts  --      0.1815                 0.2878                 0.3437
 IR Inten    --      2.4373                 4.2532                 0.4145

                     10                     11                     12
                      A                      A                      A
 Frequencies --    437.5270               506.3639               623.9313
 Red. masses --      3.4868                 4.7995                 3.1124
 Frc consts  --      0.3933                 0.7251                 0.7139
 IR Inten    --      3.5875                 0.9984                26.0909

                     13                     14                     15
                      A                      A                      A
 Frequencies --    753.6806               780.8960               811.1191
 Red. masses --      1.2319                 1.1981                 4.0991
 Frc consts  --      0.4123                 0.4305                 1.5890
 IR Inten    --      0.3412                 1.5052                 2.0769

                     16                     17                     18
                      A                      A                      A
 Frequencies --    872.1107               960.8398              1025.9027
 Red. masses --      1.3985                 4.1340                 2.5207
 Frc consts  --      0.6267                 2.2486                 1.5631
 IR Inten    --     33.1800                 6.1746                74.4171

                     19                     20                     21
                      A                      A                      A
 Frequencies --   1053.7748              1085.7616              1123.4349
 Red. masses --      2.3609                 1.6584                 1.2778
 Frc consts  --      1.5446                 1.1518                 0.9502
 IR Inten    --     55.1721                 1.2110                 0.1698

                     22                     23                     24
                      A                      A                      A
 Frequencies --   1178.8187              1231.2565              1250.9019
 Red. masses --      1.7799                 1.1395                 2.1813
 Frc consts  --      1.4573                 1.0178                 2.0110
 IR Inten    --     27.7088                 0.1561                15.6514

                     25                     26                     27
                      A                      A                      A
 Frequencies --   1304.7325              1311.9496              1343.7685
 Red. masses --      2.5079                 1.0753                 2.2525
 Frc consts  --      2.5154                 1.0905                 2.3964
 IR Inten    --     24.3200                 0.0003                 8.7178

                     28                     29                     30
                      A                      A                      A
 Frequencies --   1413.1180              1441.5060              1474.4079
 Red. masses --      1.4308                 1.1865                 1.0834
 Frc consts  --      1.6834                 1.4526                 1.3876
 IR Inten    --     58.6252                17.6605                 6.4951

                     31                     32                     33
                      A                      A                      A
 Frequencies --   1484.3560              1507.0213              1513.5715
 Red. masses --      1.0414                 1.1715                 1.0661
 Frc consts  --      1.3520                 1.5676                 1.4390
 IR Inten    --      6.2879                 7.7006                12.5689

                     34                     35                     36
                      A                      A                      A
 Frequencies --   1527.5308              1679.5669              2368.8046
 Red. masses --      1.0818                 5.8784                12.6142
 Frc consts  --      1.4872                 9.7702                41.7030
 IR Inten    --     10.6021                76.4725                 9.2417

                     37                     38                     39
                      A                      A                      A
 Frequencies --   3005.8455              3022.0197              3048.1618
 Red. masses --      1.0422                 1.0570                 1.1054
 Frc consts  --      5.5481                 5.6876                 6.0514
 IR Inten    --     50.3613                34.0540                44.2793

                     40                     41                     42
                      A                      A                      A
 Frequencies --   3051.9174              3055.1088              3084.2704
 Red. masses --      1.1051                 1.0574                 1.0616
 Frc consts  --      6.0645                 5.8151                 5.9501
 IR Inten    --      1.2622                12.4344                28.5284

                     43                     44                     45
                      A                      A                      A
 Frequencies --   3098.9772              3162.4190              3208.2934
 Red. masses --      1.1031                 1.0901                 1.1078
 Frc consts  --      6.2417                 6.4230                 6.7182
 IR Inten    --     11.1374                 7.8005                14.1133

 - Thermochemistry -
 -------------------
 Temperature   298.150 Kelvin.  Pressure   1.00000 Atm.
 Atom     1 has atomic number  6 and mass  12.00000

 Molecular mass:   111.07965 amu.
 Principal axes and moments of inertia in atomic units:
                           1         2         3
     Eigenvalues --   278.638402055.573842300.47158
           X            1.00000  -0.00110   0.00000
           Y            0.00110   1.00000  -0.00001
           Z           -0.00000   0.00001   1.00000
 This molecule is an asymmetric top.
 Rotational symmetry number  1.
 Rotational temperatures (Kelvin)      0.31085     0.04214     0.03765
 Rotational constants (GHZ):           6.47700     0.87797     0.78451
    2 imaginary frequencies ignored.
 Zero-point vibrational energy     366941.6 (Joules/Mol)
                                   87.70116 (Kcal/Mol)
 Warning -- explicit consideration of   9 degrees of freedom as
           vibrations may cause significant error
 Vibrational temperatures:    104.26   140.19   172.65   336.63   367.17
          (Kelvin)            517.34   583.51   629.50   728.54   897.70
                             1084.38  1123.54  1167.02  1254.77  1382.43
                             1476.05  1516.15  1562.17  1616.37  1696.06
                             1771.50  1799.77  1877.22  1887.60  1933.38
                             2033.16  2074.01  2121.34  2135.66  2168.27
                             2177.69  2197.78  2416.52  3408.18  4324.74
                             4348.01  4385.62  4391.03  4395.62  4437.58
                             4458.74  4550.02  4616.02

 Zero-point correction=                           0.139761 (Hartree/Particle)
 Thermal correction to Energy=                    0.147689
 Thermal correction to Enthalpy=                  0.148633
 Thermal correction to Gibbs Free Energy=         0.106635
 Sum of electronic and zero-point Energies=           -360.005444
 Sum of electronic and thermal Energies=              -359.997516
 Sum of electronic and thermal Enthalpies=            -359.996572
 Sum of electronic and thermal Free Energies=         -360.038570

                     E (Thermal)             CV                S
                      KCal/Mol        Cal/Mol-Kelvin    Cal/Mol-Kelvin
 Total                   92.676             27.810             88.391
 Electronic               0.000              0.000              0.000
 Translational            0.889              2.981             40.031
 Rotational               0.889              2.981             28.668
 Vibrational             90.899             21.849             19.692
 Vibration     1          0.599              1.967              4.085
 Vibration     2          0.603              1.951              3.505
 Vibration     3          0.609              1.933              3.100
 Vibration     4          0.654              1.789              1.848
 Vibration     5          0.666              1.754              1.694
 Vibration     6          0.734              1.556              1.124
 Vibration     7          0.771              1.458              0.942
 Vibration     8          0.798              1.388              0.834
 Vibration     9          0.862              1.236              0.642

 Optimization completed.
    -- Stationary point found.
 Normal termination of Gaussian 16 at Tue Jun  1 11:24:49 2021.
