 Gaussian 16, Revision A.03,
 Gaussian 16:  ES64L-G16RevA.03 25-Dec-2016

 -----------------------------
 # opt freq b3lyp/6-31g(2df,p)
 -----------------------------

 -------------------
 Title Card Required
 -------------------
 Symbolic Z-matrix:
 Charge =  0 Multiplicity = 1

 SCF Done:  E(RB3LYP) =  -321.997504428     A.U. after   12 cycles
 SCF Done:  E(RB3LYP) =  -322.002114580     A.U. after   11 cycles
 SCF Done:  E(RB3LYP) =  -322.003064717     A.U. after   10 cycles
 SCF Done:  E(RB3LYP) =  -322.003146117     A.U. after    9 cycles
 SCF Done:  E(RB3LYP) =  -322.003166218     A.U. after    9 cycles
 SCF Done:  E(RB3LYP) =  -322.003171329     A.U. after    8 cycles
 SCF Done:  E(RB3LYP) =  -322.003172788     A.U. after    7 cycles
 SCF Done:  E(RB3LYP) =  -322.003173008     A.U. after    6 cycles
 Optimization completed.
    -- Stationary point found.
 Normal termination of Gaussian 16 at Tue Jun  1 21:11:38 2021.

 ----------------------------------------------------------------------
 #N Geom=AllCheck Guess=TCheck SCRF=Check GenChk RB3LYP/6-31G(2df,p) Fr
 eq
 ----------------------------------------------------------------------

 Structure from the checkpoint file:  "CN1CN2CC1N2.chk"
 -------------------
 Title Card Required
 -------------------
 Charge =  0 Multiplicity = 1

                         Standard orientation:
 ---------------------------------------------------------------------
 Center     Atomic      Atomic             Coordinates (Angstroms)
 Number     Number       Type             X           Y           Z
 ---------------------------------------------------------------------
      1          6           0        2.136247   -0.201026    0.018214
      2          7           0        0.831914    0.075074   -0.562614
      3          6           0        0.115225    1.242831    0.027868
      4          7           0       -1.198851    0.663437    0.437354
      5          6           0       -1.460330   -0.215802   -0.782276
      6          6           0       -0.200530   -0.936216   -0.288483
      7          7           0       -0.758786   -0.642578    1.068725
      8          1           0        2.814308    0.630753   -0.195182
      9          1           0        2.560751   -1.099507   -0.440620
     10          1           0        2.128074   -0.347477    1.115296
     11          1           0       -0.043654    2.044654   -0.699143
     12          1           0        0.627247    1.650061    0.907921
     13          1           0       -1.418620    0.298425   -1.743108
     14          1           0       -2.384226   -0.771725   -0.639493
     15          1           0        0.094083   -1.956910   -0.536886
     16          1           0       -0.041574   -0.458522    1.775023
 ---------------------------------------------------------------------

 SCF Done:  E(RB3LYP) =  -322.003173008     A.U. after    1 cycles

 The electronic state is 1-A.
 Alpha  occ. eigenvalues --  -14.35508 -14.34099 -14.32413 -10.24227 -10.23018
 Alpha  occ. eigenvalues --  -10.21026 -10.20889  -1.03084  -0.88395  -0.78350
 Alpha  occ. eigenvalues --   -0.73055  -0.69022  -0.59358  -0.57216  -0.52462
 Alpha  occ. eigenvalues --   -0.50043  -0.46527  -0.42988  -0.42350  -0.40866
 Alpha  occ. eigenvalues --   -0.38411  -0.36057  -0.35302  -0.34745  -0.28850
 Alpha  occ. eigenvalues --   -0.23388  -0.22086
 Alpha virt. eigenvalues --    0.07021   0.09014   0.11036   0.12695   0.13330
 Alpha virt. eigenvalues --    0.14037   0.14643   0.15669   0.16681   0.17813
 Alpha virt. eigenvalues --    0.18210   0.19929   0.21378   0.22340   0.23044

 Mulliken charges:
               1
     1  C   -0.334000
     2  N   -0.062765
     3  C   -0.135547
     4  N   -0.123565
     5  C   -0.150270
     6  C    0.010031
     7  N   -0.298581
     8  H    0.127534
     9  H    0.124899
    10  H    0.086429
    11  H    0.115405
    12  H    0.102395
    13  H    0.113109
    14  H    0.127168
    15  H    0.079494
    16  H    0.218263
 Sum of Mulliken charges =  -0.00000

 Dipole moment (field-independent basis, Debye):
    X=              1.8815    Y=             -0.2583    Z=             -0.5563  Tot=              1.9789
 Quadrupole moment (field-independent basis, Debye-Ang):
   XX=            -44.0695   YY=            -41.5859   ZZ=            -43.4502
   XY=              0.6406   XZ=              4.9796   YZ=              0.5441

  Exact polarizability:  65.346   0.785  59.243   4.142  -0.540  54.761
 Approx polarizability:  88.489   0.167  90.741   3.599  -1.951  87.216

                      1                      2                      3
                      A                      A                      A
 Frequencies --    201.9472               210.2806               332.4292
 Red. masses --      2.5532                 1.0741                 2.5657
 Frc consts  --      0.0613                 0.0280                 0.1671
 IR Inten    --      1.9720                 0.2390                 0.1284

                      4                      5                      6
                      A                      A                      A
 Frequencies --    440.6400               505.8051               602.2222
 Red. masses --      2.0187                 2.1606                 2.5407
 Frc consts  --      0.2309                 0.3257                 0.5429
 IR Inten    --      3.8060                 0.5026                21.5858

                      7                      8                      9
                      A                      A                      A
 Frequencies --    650.0012               779.9986               796.1388
 Red. masses --      4.2272                 3.3537                 6.9360
 Frc consts  --      1.0523                 1.2022                 2.5902
 IR Inten    --      9.2053                30.1687                 9.6212

                     10                     11                     12
                      A                      A                      A
 Frequencies --    844.5403               850.4714               878.5518
 Red. masses --      3.4746                 2.9284                 4.6990
 Frc consts  --      1.4601                 1.2480                 2.1369
 IR Inten    --     28.6385                 4.5266                 9.0889

                     13                     14                     15
                      A                      A                      A
 Frequencies --    956.4881               984.4821              1037.2005
 Red. masses --      3.2408                 2.8860                 1.6439
 Frc consts  --      1.7469                 1.6480                 1.0420
 IR Inten    --      6.0189                26.3386                 5.9093

                     16                     17                     18
                      A                      A                      A
 Frequencies --   1055.4216              1079.4339              1115.9259
 Red. masses --      2.2102                 1.4620                 1.5158
 Frc consts  --      1.4506                 1.0037                 1.1122
 IR Inten    --     23.1286                 8.2442                19.8717

                     19                     20                     21
                      A                      A                      A
 Frequencies --   1139.1094              1164.2621              1193.2880
 Red. masses --      1.3666                 1.4979                 2.1543
 Frc consts  --      1.0448                 1.1963                 1.8074
 IR Inten    --      8.6770                14.5545                27.6982

                     22                     23                     24
                      A                      A                      A
 Frequencies --   1212.2271              1231.0217              1252.2288
 Red. masses --      1.4212                 1.7044                 1.4266
 Frc consts  --      1.2305                 1.5218                 1.3181
 IR Inten    --      7.0465                16.3803                 5.0997

                     25                     26                     27
                      A                      A                      A
 Frequencies --   1259.2490              1293.2738              1339.5275
 Red. masses --      1.4078                 1.5974                 1.3185
 Frc consts  --      1.3153                 1.5741                 1.3939
 IR Inten    --      1.2275                 6.6509                 5.3186

                     28                     29                     30
                      A                      A                      A
 Frequencies --   1365.6967              1456.9838              1488.3329
 Red. masses --      1.5757                 1.1673                 1.1005
 Frc consts  --      1.7316                 1.4599                 1.4363
 IR Inten    --     37.5531                 0.1779                 6.8336

                     31                     32                     33
                      A                      A                      A
 Frequencies --   1493.5206              1502.2481              1523.4496
 Red. masses --      1.0681                 1.0458                 1.0969
 Frc consts  --      1.4037                 1.3906                 1.4999
 IR Inten    --      8.9338                 4.1967                 1.0777

                     34                     35                     36
                      A                      A                      A
 Frequencies --   2921.7673              3029.3236              3064.0437
 Red. masses --      1.0604                 1.0609                 1.0701
 Frc consts  --      5.3335                 5.7362                 5.9191
 IR Inten    --     75.0992                47.3021                33.8272

                     37                     38                     39
                      A                      A                      A
 Frequencies --   3084.5940              3095.4308              3105.5865
 Red. masses --      1.1042                 1.0599                 1.1026
 Frc consts  --      6.1902                 5.9837                 6.2656
 IR Inten    --     17.0141                37.3320                10.1209

                     40                     41                     42
                      A                      A                      A
 Frequencies --   3115.7429              3178.0013              3417.7739
 Red. masses --      1.0912                 1.1118                 1.0749
 Frc consts  --      6.2411                 6.6161                 7.3977
 IR Inten    --     49.2991                12.7988                 5.3565

 - Thermochemistry -
 -------------------
 Temperature   298.150 Kelvin.  Pressure   1.00000 Atm.
 Atom     1 has atomic number  6 and mass  12.00000

 Molecular mass:    99.07965 amu.
 Principal axes and moments of inertia in atomic units:
                           1         2         3
     Eigenvalues --   344.75097 668.55834 720.79986
           X            0.99881   0.00352   0.04869
           Y           -0.00443   0.99982   0.01858
           Z           -0.04862  -0.01877   0.99864
 This molecule is an asymmetric top.
 Rotational symmetry number  1.
 Rotational temperatures (Kelvin)      0.25124     0.12955     0.12016
 Rotational constants (GHZ):           5.23491     2.69945     2.50380
 Zero-point vibrational energy     366348.4 (Joules/Mol)
                                   87.55936 (Kcal/Mol)
 Warning -- explicit consideration of   6 degrees of freedom as
           vibrations may cause significant error
 Vibrational temperatures:    290.56   302.55   478.29   633.98   727.74
          (Kelvin)            866.46   935.21  1122.24  1145.47  1215.11
                             1223.64  1264.04  1376.17  1416.45  1492.30
                             1518.52  1553.06  1605.57  1638.92  1675.11
                             1716.88  1744.12  1771.17  1801.68  1811.78
                             1860.73  1927.28  1964.93  2096.27  2141.38
                             2148.84  2161.40  2191.90  4203.77  4358.52
                             4408.48  4438.04  4453.63  4468.25  4482.86
                             4572.44  4917.41

 Zero-point correction=                           0.139535 (Hartree/Particle)
 Thermal correction to Energy=                    0.145355
 Thermal correction to Enthalpy=                  0.146299
 Thermal correction to Gibbs Free Energy=         0.110269
 Sum of electronic and zero-point Energies=           -321.863638
 Sum of electronic and thermal Energies=              -321.857818
 Sum of electronic and thermal Enthalpies=            -321.856874
 Sum of electronic and thermal Free Energies=         -321.892904

                     E (Thermal)             CV                S
                      KCal/Mol        Cal/Mol-Kelvin    Cal/Mol-Kelvin
 Total                   91.212             23.074             75.832
 Electronic               0.000              0.000              0.000
 Translational            0.889              2.981             39.690
 Rotational               0.889              2.981             26.610
 Vibrational             89.434             17.112              9.531
 Vibration     1          0.639              1.837              2.115
 Vibration     2          0.642              1.825              2.041
 Vibration     3          0.714              1.611              1.248
 Vibration     4          0.801              1.382              0.825
 Vibration     5          0.861              1.237              0.644
 Vibration     6          0.961              1.027              0.446

                           ! Non-Optimized Parameters !
 Normal termination of Gaussian 16 at Tue Jun  1 21:30:29 2021.
