 Gaussian 16, Revision A.03,
 Gaussian 16:  ES64L-G16RevA.03 25-Dec-2016

 -----------------------------
 # opt freq b3lyp/6-31g(2df,p)
 -----------------------------

 -------------------
 Title Card Required
 -------------------
 Symbolic Z-matrix:
 Charge =  0 Multiplicity = 1

 SCF Done:  E(RB3LYP) =  -416.659824937     A.U. after   13 cycles
 SCF Done:  E(RB3LYP) =  -416.675399252     A.U. after   11 cycles
 SCF Done:  E(RB3LYP) =  -416.682681999     A.U. after   12 cycles
 SCF Done:  E(RB3LYP) =  -416.690456266     A.U. after   12 cycles
 SCF Done:  E(RB3LYP) =  -416.694347377     A.U. after   11 cycles
 SCF Done:  E(RB3LYP) =  -416.699508846     A.U. after   12 cycles
 SCF Done:  E(RB3LYP) =  -416.704924124     A.U. after   12 cycles
 SCF Done:  E(RB3LYP) =  -416.710119037     A.U. after   12 cycles
 SCF Done:  E(RB3LYP) =  -416.712738736     A.U. after   11 cycles
 SCF Done:  E(RB3LYP) =  -416.714097686     A.U. after   10 cycles
 SCF Done:  E(RB3LYP) =  -416.715302368     A.U. after   11 cycles
 SCF Done:  E(RB3LYP) =  -416.715700773     A.U. after   10 cycles
 SCF Done:  E(RB3LYP) =  -416.715851709     A.U. after   10 cycles
 SCF Done:  E(RB3LYP) =  -416.715900677     A.U. after   11 cycles
 SCF Done:  E(RB3LYP) =  -416.715935722     A.U. after    9 cycles
 SCF Done:  E(RB3LYP) =  -416.715931515     A.U. after    9 cycles
 SCF Done:  E(RB3LYP) =  -416.715943654     A.U. after    9 cycles
 SCF Done:  E(RB3LYP) =  -416.715944283     A.U. after    7 cycles
 SCF Done:  E(RB3LYP) =  -416.715944465     A.U. after    7 cycles
 Optimization completed.
    -- Stationary point found.
 Normal termination of Gaussian 16 at Mon May 31 13:17:34 2021.

 ----------------------------------------------------------------------
 #N Geom=AllCheck Guess=TCheck SCRF=Check GenChk RB3LYP/6-31G(2df,p) Fr
 eq
 ----------------------------------------------------------------------

 Structure from the checkpoint file:  "CN1CNCdCN1CN.chk"
 -------------------
 Title Card Required
 -------------------
 Charge =  0 Multiplicity = 1

                         Standard orientation:
 ---------------------------------------------------------------------
 Center     Atomic      Atomic             Coordinates (Angstroms)
 Number     Number       Type             X           Y           Z
 ---------------------------------------------------------------------
      1          6           0       -0.272015    1.757699    0.946909
      2          7           0        0.072148    0.857247   -0.152061
      3          6           0       -1.051343    0.617354   -1.082018
      4          7           0       -2.165155   -0.105523   -0.501151
      5          6           0       -1.731627   -1.170604    0.314842
      6          6           0       -0.434177   -1.346263    0.614606
      7          7           0        0.555445   -0.378200    0.367458
      8          6           0        1.764111   -0.814343   -0.315159
      9          7           0        2.834279    0.145381   -0.073424
     10          1           0       -0.566113    2.725577    0.526847
     11          1           0        0.611676    1.895878    1.571596
     12          1           0       -1.090663    1.385365    1.581379
     13          1           0       -0.646668    0.020311   -1.907121
     14          1           0       -1.393714    1.575406   -1.478802
     15          1           0       -2.863528    0.489246   -0.071298
     16          1           0       -2.488951   -1.872092    0.643648
     17          1           0       -0.084040   -2.239061    1.120096
     18          1           0        1.552357   -0.980593   -1.392465
     19          1           0        2.045203   -1.783376    0.112841
     20          1           0        2.537799    1.030915   -0.476569
     21          1           0        3.659933   -0.142968   -0.590988
 ---------------------------------------------------------------------

 SCF Done:  E(RB3LYP) =  -416.715944465     A.U. after    1 cycles

 The electronic state is 1-A.
 Alpha  occ. eigenvalues --  -14.34923 -14.34510 -14.32642 -14.29910 -10.23067
 Alpha  occ. eigenvalues --  -10.22719 -10.19605 -10.19027 -10.18910  -1.00045
 Alpha  occ. eigenvalues --   -0.90958  -0.86896  -0.82467  -0.72157  -0.68671
 Alpha  occ. eigenvalues --   -0.64739  -0.61763  -0.54163  -0.52225  -0.49290
 Alpha  occ. eigenvalues --   -0.46987  -0.46898  -0.45224  -0.43141  -0.42184
 Alpha  occ. eigenvalues --   -0.41667  -0.39094  -0.37775  -0.36909  -0.35517
 Alpha  occ. eigenvalues --   -0.32015  -0.25625  -0.23267  -0.22938  -0.17876
 Alpha virt. eigenvalues --    0.05280   0.07793   0.09546   0.12043   0.12152
 Alpha virt. eigenvalues --    0.13653   0.14374   0.15608   0.16387   0.17701
 Alpha virt. eigenvalues --    0.17826   0.18416   0.20719   0.20857   0.21350

 Mulliken charges:
               1
     1  C   -0.306546
     2  N   -0.088956
     3  C   -0.148569
     4  N   -0.306117
     5  C   -0.086582
     6  C   -0.049863
     7  N   -0.051141
     8  C   -0.088741
     9  N   -0.505851
    10  H    0.108602
    11  H    0.138934
    12  H    0.106075
    13  H    0.116641
    14  H    0.109941
    15  H    0.229104
    16  H    0.098274
    17  H    0.100860
    18  H    0.067532
    19  H    0.104683
    20  H    0.229599
    21  H    0.222122
 Sum of Mulliken charges =  -0.00000

 Dipole moment (field-independent basis, Debye):
    X=             -0.6494    Y=              0.5764    Z=             -0.8625  Tot=              1.2239
 Quadrupole moment (field-independent basis, Debye-Ang):
   XX=            -52.2591   YY=            -51.3524   ZZ=            -56.5022
   XY=             -3.8526   XZ=             -5.8935   YZ=             -1.5111

  Exact polarizability:  98.717  -2.179  80.975  -0.145  -4.348  64.577
 Approx polarizability: 146.464  -5.486 115.918   5.587  -8.333  98.904

                      1                      2                      3
                      A                      A                      A
 Frequencies --     83.6710               116.9936               185.6032
 Red. masses --      3.5506                 2.7587                 2.2778
 Frc consts  --      0.0146                 0.0222                 0.0462
 IR Inten    --     10.6595                 4.0131                 0.2623

                      4                      5                      6
                      A                      A                      A
 Frequencies --    208.2148               227.3095               252.8993
 Red. masses --      1.1741                 1.3294                 1.9163
 Frc consts  --      0.0300                 0.0405                 0.0722
 IR Inten    --     20.5423                29.4317                 6.3260

                      7                      8                      9
                      A                      A                      A
 Frequencies --    284.4911               395.8243               419.9258
 Red. masses --      2.0349                 3.0339                 2.5459
 Frc consts  --      0.0970                 0.2801                 0.2645
 IR Inten    --     14.4383                 0.7412                10.8731

                     10                     11                     12
                      A                      A                      A
 Frequencies --    464.2303               542.4362               570.7759
 Red. masses --      2.9177                 2.8129                 3.7739
 Frc consts  --      0.3705                 0.4876                 0.7244
 IR Inten    --      4.2804               117.5387                10.7749

                     13                     14                     15
                      A                      A                      A
 Frequencies --    602.6110               672.9213               734.9013
 Red. masses --      2.9671                 2.2047                 1.7031
 Frc consts  --      0.6348                 0.5882                 0.5419
 IR Inten    --     33.0527                87.2211                69.4400

                     16                     17                     18
                      A                      A                      A
 Frequencies --    752.9334               840.0020               884.2307
 Red. masses --      2.5218                 2.7519                 1.3050
 Frc consts  --      0.8423                 1.1440                 0.6012
 IR Inten    --     22.7197                26.2345                 7.0965

                     19                     20                     21
                      A                      A                      A
 Frequencies --    899.2191               920.4393               983.2187
 Red. masses --      1.4776                 2.1242                 2.8633
 Frc consts  --      0.7040                 1.0603                 1.6308
 IR Inten    --     72.1495                17.3710                12.5809

                     22                     23                     24
                      A                      A                      A
 Frequencies --   1011.3933              1049.1589              1067.9137
 Red. masses --      2.2450                 2.1395                 2.3453
 Frc consts  --      1.3530                 1.3876                 1.5759
 IR Inten    --     12.1423               119.0958                 7.2896

                     25                     26                     27
                      A                      A                      A
 Frequencies --   1083.1729              1148.1185              1153.3220
 Red. masses --      2.5723                 1.8706                 1.6415
 Frc consts  --      1.7781                 1.4528                 1.2864
 IR Inten    --     11.0097                11.2123                16.5654

                     28                     29                     30
                      A                      A                      A
 Frequencies --   1178.4900              1206.1631              1218.7631
 Red. masses --      1.7394                 3.0281                 2.0135
 Frc consts  --      1.4233                 2.5955                 1.7621
 IR Inten    --      2.4638                14.7996                 5.1068

                     31                     32                     33
                      A                      A                      A
 Frequencies --   1253.6117              1312.4072              1324.3725
 Red. masses --      1.5339                 1.5199                 1.5187
 Frc consts  --      1.4203                 1.5424                 1.5694
 IR Inten    --      4.3228                14.9396                 0.3270

                     34                     35                     36
                      A                      A                      A
 Frequencies --   1331.0192              1384.0394              1426.1887
 Red. masses --      1.2146                 1.2216                 1.4546
 Frc consts  --      1.2678                 1.3787                 1.7432
 IR Inten    --      4.6047                 0.3707                40.9717

                     37                     38                     39
                      A                      A                      A
 Frequencies --   1438.0743              1447.9370              1454.2327
 Red. masses --      1.2600                 1.2660                 1.3822
 Frc consts  --      1.5352                 1.5638                 1.7222
 IR Inten    --     39.0354                11.6415                12.3172

                     40                     41                     42
                      A                      A                      A
 Frequencies --   1479.8535              1482.0817              1509.6247
 Red. masses --      1.1111                 1.0645                 1.0894
 Frc consts  --      1.4336                 1.3776                 1.4628
 IR Inten    --      7.7900                 5.8117                 0.2341

                     43                     44                     45
                      A                      A                      A
 Frequencies --   1511.5706              1637.4565              1701.1835
 Red. masses --      1.0550                 1.0925                 5.8686
 Frc consts  --      1.4202                 1.7258                10.0065
 IR Inten    --      3.5228                50.0455                17.9153

                     46                     47                     48
                      A                      A                      A
 Frequencies --   2864.4114              2989.5149              3040.6191
 Red. masses --      1.0730                 1.0486                 1.0645
 Frc consts  --      5.1871                 5.5215                 5.7985
 IR Inten    --    100.3397                53.1330                36.4541

                     49                     50                     51
                      A                      A                      A
 Frequencies --   3056.2033              3071.9840              3111.3956
 Red. masses --      1.0859                 1.0878                 1.1016
 Frc consts  --      5.9757                 6.0485                 6.2835
 IR Inten    --     30.5917                30.4091                23.1429

                     52                     53                     54
                      A                      A                      A
 Frequencies --   3134.9298              3183.2988              3203.0553
 Red. masses --      1.0993                 1.0852                 1.0977
 Frc consts  --      6.3652                 6.4788                 6.6352
 IR Inten    --     11.0047                 1.1959                22.4406

                     55                     56                     57
                      A                      A                      A
 Frequencies --   3483.9153              3532.8628              3562.8760
 Red. masses --      1.0494                 1.0748                 1.0908
 Frc consts  --      7.5044                 7.9036                 8.1584
 IR Inten    --      2.4395                 1.2351                 1.2077

 - Thermochemistry -
 -------------------
 Temperature   298.150 Kelvin.  Pressure   1.00000 Atm.
 Atom     1 has atomic number  6 and mass  12.00000

 Molecular mass:   128.10620 amu.
 Principal axes and moments of inertia in atomic units:
                           1         2         3
     Eigenvalues --   653.222061323.635341599.58517
           X            0.99966  -0.01922  -0.01735
           Y            0.01951   0.99967   0.01676
           Z            0.01702  -0.01710   0.99971
 This molecule is an asymmetric top.
 Rotational symmetry number  1.
 Warning -- assumption of classical behavior for rotation
           may cause significant error
 Rotational temperatures (Kelvin)      0.13259     0.06544     0.05415
 Rotational constants (GHZ):           2.76283     1.36347     1.12826
 Zero-point vibrational energy     485014.3 (Joules/Mol)
                                  115.92121 (Kcal/Mol)
 Warning -- explicit consideration of  13 degrees of freedom as
           vibrations may cause significant error
 Vibrational temperatures:    120.38   168.33   267.04   299.57   327.05
          (Kelvin)            363.87   409.32   569.50   604.18   667.92
                              780.44   821.22   867.02   968.18  1057.36
                             1083.30  1208.58  1272.21  1293.78  1324.31
                             1414.63  1455.17  1509.51  1536.49  1558.44
                             1651.89  1659.37  1695.58  1735.40  1753.53
                             1803.67  1888.26  1905.48  1915.04  1991.32
                             2051.97  2069.07  2083.26  2092.32  2129.18
                             2132.38  2172.01  2174.81  2355.93  2447.62
                             4121.25  4301.25  4374.77  4397.19  4419.90
                             4476.60  4510.46  4580.06  4608.48  5012.58
                             5083.00  5126.18

 Zero-point correction=                           0.184732 (Hartree/Particle)
 Thermal correction to Energy=                    0.193891
 Thermal correction to Enthalpy=                  0.194835
 Thermal correction to Gibbs Free Energy=         0.151108
 Sum of electronic and zero-point Energies=           -416.531212
 Sum of electronic and thermal Energies=              -416.522053
 Sum of electronic and thermal Enthalpies=            -416.521109
 Sum of electronic and thermal Free Energies=         -416.564836

                     E (Thermal)             CV                S
                      KCal/Mol        Cal/Mol-Kelvin    Cal/Mol-Kelvin
 Total                  121.669             35.012             92.031
 Electronic               0.000              0.000              0.000
 Translational            0.889              2.981             40.456
 Rotational               0.889              2.981             28.716
 Vibrational            119.891             29.050             22.859
 Vibration     1          0.601              1.960              3.803
 Vibration     2          0.608              1.935              3.149
 Vibration     3          0.632              1.860              2.271
 Vibration     4          0.642              1.828              2.059
 Vibration     5          0.651              1.799              1.900
 Vibration     6          0.664              1.758              1.710
 Vibration     7          0.683              1.702              1.507
 Vibration     8          0.763              1.479              0.978
 Vibration     9          0.783              1.427              0.892
 Vibration    10          0.822              1.329              0.754
 Vibration    11          0.898              1.156              0.560
 Vibration    12          0.927              1.094              0.503
 Vibration    13          0.961              1.026              0.445

                           ! Non-Optimized Parameters !
 Normal termination of Gaussian 16 at Mon May 31 13:53:22 2021.
