 Gaussian 16, Revision A.03,
 Gaussian 16:  ES64L-G16RevA.03 25-Dec-2016

 -----------------------------
 # opt freq b3lyp/6-31g(2df,p)
 -----------------------------

 -------------------
 Title Card Required
 -------------------
 Symbolic Z-matrix:
 Charge =  0 Multiplicity = 1

 SCF Done:  E(RB3LYP) =  -330.499170732     A.U. after   12 cycles
 SCF Done:  E(RB3LYP) =  -330.512877718     A.U. after   11 cycles
 SCF Done:  E(RB3LYP) =  -330.515555171     A.U. after   11 cycles
 SCF Done:  E(RB3LYP) =  -330.517362337     A.U. after   11 cycles
 SCF Done:  E(RB3LYP) =  -330.518422519     A.U. after   11 cycles
 SCF Done:  E(RB3LYP) =  -330.519295273     A.U. after   10 cycles
 SCF Done:  E(RB3LYP) =  -330.519706131     A.U. after   10 cycles
 SCF Done:  E(RB3LYP) =  -330.519787116     A.U. after    9 cycles
 SCF Done:  E(RB3LYP) =  -330.519816355     A.U. after    9 cycles
 SCF Done:  E(RB3LYP) =  -330.519820700     A.U. after    7 cycles
 SCF Done:  E(RB3LYP) =  -330.519823716     A.U. after    7 cycles
 SCF Done:  E(RB3LYP) =  -330.519824906     A.U. after    7 cycles
 SCF Done:  E(RB3LYP) =  -330.519825542     A.U. after    6 cycles
 SCF Done:  E(RB3LYP) =  -330.519825621     A.U. after    6 cycles
 Optimization completed.
    -- Stationary point found.
 Normal termination of Gaussian 16 at Mon May 31 23:59:10 2021.

 ----------------------------------------------------------------------
 #N Geom=AllCheck Guess=TCheck SCRF=Check GenChk RB3LYP/6-31G(2df,p) Fr
 eq
 ----------------------------------------------------------------------

 Structure from the checkpoint file:  "CNC1CpCpC1pCpC.chk"
 -------------------
 Title Card Required
 -------------------
 Charge =  0 Multiplicity = 1

                         Standard orientation:
 ---------------------------------------------------------------------
 Center     Atomic      Atomic             Coordinates (Angstroms)
 Number     Number       Type             X           Y           Z
 ---------------------------------------------------------------------
      1          6           0       -2.605313   -0.503451    0.064972
      2          7           0       -1.637206    0.542503   -0.242604
      3          6           0       -0.395870    0.059406   -0.776874
      4          6           0        0.889611    0.828584   -0.599210
      5          6           0        0.974945    2.117776    0.193416
      6          6           0        0.747943   -0.549853    0.040820
      7          6           0        0.620467   -0.668994    1.547561
      8          6           0        1.534589   -1.679981   -0.596420
      9          1           0       -3.522490   -0.049445    0.452597
     10          1           0       -2.253968   -1.253857    0.792748
     11          1           0       -2.864350   -1.036627   -0.857104
     12          1           0       -1.492801    1.142847    0.558293
     13          1           0       -0.544325   -0.392442   -1.757476
     14          1           0        1.523820    0.848367   -1.483367
     15          1           0        0.392002    2.096528    1.118240
     16          1           0        0.616990    2.965642   -0.400892
     17          1           0        2.011649    2.327780    0.478720
     18          1           0       -0.101905    0.034649    1.969541
     19          1           0        1.581428   -0.492262    2.046116
     20          1           0        0.289988   -1.676456    1.825383
     21          1           0        1.572998   -1.574496   -1.685767
     22          1           0        1.083579   -2.654602   -0.372563
     23          1           0        2.569600   -1.704071   -0.231825
 ---------------------------------------------------------------------

 SCF Done:  E(RB3LYP) =  -330.519825621     A.U. after    1 cycles

 The electronic state is 1-A.
 Alpha  occ. eigenvalues --  -14.30984 -10.19974 -10.19494 -10.18354 -10.18024
 Alpha  occ. eigenvalues --  -10.17657 -10.17297 -10.16995  -0.90755  -0.83452
 Alpha  occ. eigenvalues --   -0.73356  -0.69824  -0.68150  -0.65312  -0.56546
 Alpha  occ. eigenvalues --   -0.52941  -0.48274  -0.46290  -0.43994  -0.42843
 Alpha  occ. eigenvalues --   -0.41409  -0.39751  -0.38944  -0.38489  -0.38282
 Alpha  occ. eigenvalues --   -0.37670  -0.36754  -0.34422  -0.33029  -0.28847
 Alpha  occ. eigenvalues --   -0.26003  -0.19865
 Alpha virt. eigenvalues --    0.07197   0.09574   0.11790   0.12593   0.13119
 Alpha virt. eigenvalues --    0.13699   0.14763   0.16495   0.17095   0.17375
 Alpha virt. eigenvalues --    0.18217   0.19180   0.19734   0.20525   0.20776

 Mulliken charges:
               1
     1  C   -0.310409
     2  N   -0.287060
     3  C   -0.019239
     4  C   -0.085069
     5  C   -0.419001
     6  C    0.311624
     7  C   -0.452638
     8  C   -0.449104
     9  H    0.113340
    10  H    0.098154
    11  H    0.119928
    12  H    0.216358
    13  H    0.079265
    14  H    0.078147
    15  H    0.108214
    16  H    0.123663
    17  H    0.118597
    18  H    0.101322
    19  H    0.112625
    20  H    0.113655
    21  H    0.109710
    22  H    0.109026
    23  H    0.108893
 Sum of Mulliken charges =  -0.00000

 Dipole moment (field-independent basis, Debye):
    X=              0.3067    Y=             -0.1754    Z=              0.7208  Tot=              0.8028
 Quadrupole moment (field-independent basis, Debye-Ang):
   XX=            -52.2151   YY=            -52.2923   ZZ=            -51.7759
   XY=              1.4169   XZ=             -1.9314   YZ=              1.6257

  Exact polarizability:  88.396   1.045  84.110  -0.499   0.002  75.231
 Approx polarizability: 118.216   0.532 116.028   0.301  -1.011 110.810

                      1                      2                      3
                      A                      A                      A
 Frequencies --     98.8357               128.5080               164.8114
 Red. masses --      2.2658                 1.7700                 1.3690
 Frc consts  --      0.0130                 0.0172                 0.0219
 IR Inten    --      2.1280                 0.4439                 0.6046

                      4                      5                      6
                      A                      A                      A
 Frequencies --    171.1005               187.6395               204.1360
 Red. masses --      1.2715                 1.5144                 1.3212
 Frc consts  --      0.0219                 0.0314                 0.0324
 IR Inten    --      0.2268                 0.1191                 0.0946

                      7                      8                      9
                      A                      A                      A
 Frequencies --    222.8198               248.5348               297.5296
 Red. masses --      1.2402                 1.5904                 2.4915
 Frc consts  --      0.0363                 0.0579                 0.1299
 IR Inten    --      0.4299                 0.5347                 2.3707

                     10                     11                     12
                      A                      A                      A
 Frequencies --    340.8060               363.9968               460.2675
 Red. masses --      2.5339                 2.3401                 2.5033
 Frc consts  --      0.1734                 0.1827                 0.3124
 IR Inten    --      3.9576                 1.3922                 0.9892

                     13                     14                     15
                      A                      A                      A
 Frequencies --    525.6727               562.1522               667.7489
 Red. masses --      2.7209                 3.0519                 1.4643
 Frc consts  --      0.4430                 0.5682                 0.3847
 IR Inten    --      1.2092                 0.4839                96.7757

                     16                     17                     18
                      A                      A                      A
 Frequencies --    706.5972               757.9717               861.5300
 Red. masses --      3.3397                 2.6388                 1.8957
 Frc consts  --      0.9824                 0.8932                 0.8290
 IR Inten    --     13.7233                 9.5221                 4.2930

                     19                     20                     21
                      A                      A                      A
 Frequencies --    962.0867               971.3992               982.6709
 Red. masses --      1.6175                 1.4629                 1.3855
 Frc consts  --      0.8821                 0.8133                 0.7883
 IR Inten    --      1.3243                 0.3354                 3.3277

                     22                     23                     24
                      A                      A                      A
 Frequencies --   1001.0722              1013.9082              1059.8148
 Red. masses --      1.4489                 1.6181                 1.3279
 Frc consts  --      0.8555                 0.9801                 0.8788
 IR Inten    --      8.6619                 3.3799                 4.2153

                     25                     26                     27
                      A                      A                      A
 Frequencies --   1105.9479              1124.3303              1146.4751
 Red. masses --      1.7900                 2.1427                 1.5475
 Frc consts  --      1.2899                 1.5958                 1.1984
 IR Inten    --     12.7092                 9.4301                 8.8156

                     28                     29                     30
                      A                      A                      A
 Frequencies --   1157.5748              1161.1594              1196.6514
 Red. masses --      1.5992                 1.6555                 2.2534
 Frc consts  --      1.2626                 1.3151                 1.9012
 IR Inten    --      6.3753                 0.9560                 7.6490

                     31                     32                     33
                      A                      A                      A
 Frequencies --   1235.7091              1280.0752              1333.1785
 Red. masses --      2.5747                 2.3522                 1.9291
 Frc consts  --      2.3164                 2.2709                 2.0201
 IR Inten    --      7.1238                 5.3449                 2.7178

                     34                     35                     36
                      A                      A                      A
 Frequencies --   1361.5743              1407.0792              1414.8942
 Red. masses --      1.2684                 1.3286                 1.2680
 Frc consts  --      1.3854                 1.5498                 1.4956
 IR Inten    --      5.2271                 1.8769                 1.8712

                     37                     38                     39
                      A                      A                      A
 Frequencies --   1418.3231              1436.5729              1457.5386
 Red. masses --      1.6289                 1.3344                 1.1611
 Frc consts  --      1.9307                 1.6225                 1.4533
 IR Inten    --      0.6513                 1.2095                 2.8902

                     40                     41                     42
                      A                      A                      A
 Frequencies --   1480.3136              1483.4598              1490.7778
 Red. masses --      1.0495                 1.0974                 1.0623
 Frc consts  --      1.3550                 1.4228                 1.3910
 IR Inten    --      2.1833                10.3037                 2.6859

                     43                     44                     45
                      A                      A                      A
 Frequencies --   1494.3409              1495.6679              1503.8712
 Red. masses --      1.0622                 1.1007                 1.0517
 Frc consts  --      1.3975                 1.4507                 1.4014
 IR Inten    --      1.2933                 2.0844                 7.9232

                     46                     47                     48
                      A                      A                      A
 Frequencies --   1504.2924              1515.1822              1529.9071
 Red. masses --      1.0734                 1.0783                 1.2449
 Frc consts  --      1.4311                 1.4586                 1.7168
 IR Inten    --      4.4674                 0.8802                28.8304

                     49                     50                     51
                      A                      A                      A
 Frequencies --   2963.4290              3010.6492              3021.9849
 Red. masses --      1.0546                 1.0362                 1.0379
 Frc consts  --      5.4565                 5.5335                 5.5845
 IR Inten    --     64.1863                41.1509                37.9774

                     52                     53                     54
                      A                      A                      A
 Frequencies --   3032.2123              3053.2121              3067.5153
 Red. masses --      1.0371                 1.0788                 1.1004
 Frc consts  --      5.6182                 5.9250                 6.1008
 IR Inten    --     29.3283                47.1179                23.3451

                     55                     56                     57
                      A                      A                      A
 Frequencies --   3075.1138              3088.2920              3088.7594
 Red. masses --      1.1000                 1.1006                 1.1001
 Frc consts  --      6.1286                 6.1848                 6.1837
 IR Inten    --     30.8367                12.3700                30.3031

                     58                     59                     60
                      A                      A                      A
 Frequencies --   3095.8860              3098.2919              3099.3955
 Red. masses --      1.0923                 1.1008                 1.0927
 Frc consts  --      6.1683                 6.2258                 6.1844
 IR Inten    --     18.3918                21.1558                32.5452

                     61                     62                     63
                      A                      A                      A
 Frequencies --   3107.1561              3123.4373              3568.6205
 Red. masses --      1.0946                 1.0906                 1.0735
 Frc consts  --      6.2264                 6.2690                 8.0546
 IR Inten    --     17.3114                56.4383                 0.2078

 - Thermochemistry -
 -------------------
 Temperature   298.150 Kelvin.  Pressure   1.00000 Atm.
 Atom     1 has atomic number  6 and mass  12.00000

 Molecular mass:   113.12045 amu.
 Principal axes and moments of inertia in atomic units:
                           1         2         3
     Eigenvalues --   787.533511067.643661361.00179
           X            0.99956   0.02718  -0.01188
           Y           -0.02685   0.99929   0.02650
           Z            0.01259  -0.02617   0.99958
 This molecule is an asymmetric top.
 Rotational symmetry number  1.
 Warning -- assumption of classical behavior for rotation
           may cause significant error
 Rotational temperatures (Kelvin)      0.10998     0.08113     0.06364
 Rotational constants (GHZ):           2.29164     1.69040     1.32604
 Zero-point vibrational energy     551421.4 (Joules/Mol)
                                  131.79288 (Kcal/Mol)
 Warning -- explicit consideration of  14 degrees of freedom as
           vibrations may cause significant error
 Vibrational temperatures:    142.20   184.89   237.13   246.18   269.97
          (Kelvin)            293.71   320.59   357.59   428.08   490.34
                              523.71   662.22   756.33   808.81   960.74
                             1016.64  1090.55  1239.55  1384.23  1397.63
                             1413.84  1440.32  1458.79  1524.84  1591.21
                             1617.66  1649.52  1665.49  1670.65  1721.71
                             1777.91  1841.74  1918.15  1959.00  2024.47
                             2035.72  2040.65  2066.91  2097.07  2129.84
                             2134.37  2144.90  2150.02  2151.93  2163.74
                             2164.34  2180.01  2201.20  4263.71  4331.65
                             4347.96  4362.68  4392.89  4413.47  4424.40
                             4443.36  4444.04  4454.29  4457.75  4459.34
                             4470.50  4493.93  5134.45

 Zero-point correction=                           0.210025 (Hartree/Particle)
 Thermal correction to Energy=                    0.220296
 Thermal correction to Enthalpy=                  0.221240
 Thermal correction to Gibbs Free Energy=         0.175698
 Sum of electronic and zero-point Energies=           -330.309800
 Sum of electronic and thermal Energies=              -330.299530
 Sum of electronic and thermal Enthalpies=            -330.298586
 Sum of electronic and thermal Free Energies=         -330.344128

                     E (Thermal)             CV                S
                      KCal/Mol        Cal/Mol-Kelvin    Cal/Mol-Kelvin
 Total                  138.238             37.798             95.852
 Electronic               0.000              0.000              0.000
 Translational            0.889              2.981             40.085
 Rotational               0.889              2.981             28.528
 Vibrational            136.460             31.837             27.239
 Vibration     1          0.604              1.950              3.477
 Vibration     2          0.611              1.925              2.968
 Vibration     3          0.623              1.886              2.494
 Vibration     4          0.626              1.878              2.423
 Vibration     5          0.632              1.857              2.251
 Vibration     6          0.640              1.834              2.095
 Vibration     7          0.648              1.806              1.936
 Vibration     8          0.662              1.765              1.741
 Vibration     9          0.691              1.678              1.431
 Vibration    10          0.720              1.594              1.208
 Vibration    11          0.738              1.546              1.105
 Vibration    12          0.818              1.338              0.765
 Vibration    13          0.881              1.193              0.597
 Vibration    14          0.918              1.113              0.520

                           ! Non-Optimized Parameters !
 Normal termination of Gaussian 16 at Tue Jun  1 00:27:24 2021.
