 Gaussian 16, Revision A.03,
 Gaussian 16:  ES64L-G16RevA.03 25-Dec-2016

 -----------------------------
 # opt freq b3lyp/6-31g(2df,p)
 -----------------------------

 -------------------
 Title Card Required
 -------------------
 Symbolic Z-matrix:
 Charge =  0 Multiplicity = 1

 SCF Done:  E(RB3LYP) =  -363.771516524     A.U. after   12 cycles
 SCF Done:  E(RB3LYP) =  -363.778461392     A.U. after   11 cycles
 SCF Done:  E(RB3LYP) =  -363.779634959     A.U. after   11 cycles
 SCF Done:  E(RB3LYP) =  -363.780163163     A.U. after   11 cycles
 SCF Done:  E(RB3LYP) =  -363.780724292     A.U. after   11 cycles
 SCF Done:  E(RB3LYP) =  -363.781759190     A.U. after   11 cycles
 SCF Done:  E(RB3LYP) =  -363.770571163     A.U. after   11 cycles
 SCF Done:  E(RB3LYP) =  -363.783880912     A.U. after   11 cycles
 SCF Done:  E(RB3LYP) =  -363.775753430     A.U. after   11 cycles
 SCF Done:  E(RB3LYP) =  -363.784968754     A.U. after   11 cycles
 SCF Done:  E(RB3LYP) =  -363.785826416     A.U. after   10 cycles
 SCF Done:  E(RB3LYP) =  -363.786072814     A.U. after    9 cycles
 SCF Done:  E(RB3LYP) =  -363.786158947     A.U. after    9 cycles
 SCF Done:  E(RB3LYP) =  -363.786224904     A.U. after    9 cycles
 SCF Done:  E(RB3LYP) =  -363.786292505     A.U. after    9 cycles
 SCF Done:  E(RB3LYP) =  -363.786338308     A.U. after    9 cycles
 SCF Done:  E(RB3LYP) =  -363.786346045     A.U. after    8 cycles
 SCF Done:  E(RB3LYP) =  -363.786347097     A.U. after    8 cycles
 SCF Done:  E(RB3LYP) =  -363.786347155     A.U. after    6 cycles
 Optimization completed.
    -- Stationary point found.
 Normal termination of Gaussian 16 at Tue Jun  1 17:26:39 2021.

 ----------------------------------------------------------------------
 #N Geom=AllCheck Guess=TCheck SCRF=Check GenChk RB3LYP/6-31G(2df,p) Fr
 eq
 ----------------------------------------------------------------------

 Structure from the checkpoint file:  "CNCCNpCpNC.chk"
 -------------------
 Title Card Required
 -------------------
 Charge =  0 Multiplicity = 1

                         Standard orientation:
 ---------------------------------------------------------------------
 Center     Atomic      Atomic             Coordinates (Angstroms)
 Number     Number       Type             X           Y           Z
 ---------------------------------------------------------------------
      1          6           0        3.704557   -0.192552    0.207947
      2          7           0        2.410762   -0.512124   -0.379619
      3          6           0        1.304099    0.207340    0.238682
      4          6           0       -0.008875   -0.135524   -0.470001
      5          7           0       -1.189072    0.415264    0.196984
      6          6           0       -1.278779    1.864742    0.090078
      7          7           0       -2.403425   -0.149646   -0.295731
      8          6           0       -2.727451   -1.405365    0.365007
      9          1           0        4.481200   -0.808735   -0.254880
     10          1           0        3.755986   -0.338157    1.302396
     11          1           0        3.948378    0.856720    0.005298
     12          1           0        2.245204   -1.510607   -0.297507
     13          1           0        1.518352    1.278838    0.145611
     14          1           0        1.188762    0.001242    1.318977
     15          1           0       -0.117220   -1.226730   -0.474876
     16          1           0        0.052904    0.187491   -1.527265
     17          1           0       -0.426366    2.331790    0.591373
     18          1           0       -2.197220    2.194129    0.578070
     19          1           0       -1.296343    2.217854   -0.958339
     20          1           0       -2.338011   -0.291512   -1.306869
     21          1           0       -2.906572   -1.212444    1.426059
     22          1           0       -1.951244   -2.185501    0.288798
     23          1           0       -3.646975   -1.800693   -0.078566
 ---------------------------------------------------------------------

 SCF Done:  E(RB3LYP) =  -363.786347155     A.U. after    1 cycles

 The electronic state is 1-A.
 Alpha  occ. eigenvalues --  -14.33798 -14.33216 -14.31137 -10.20086 -10.20060
 Alpha  occ. eigenvalues --  -10.19785 -10.19511 -10.19087  -0.96905  -0.89812
 Alpha  occ. eigenvalues --   -0.81504  -0.73422  -0.67365  -0.65598  -0.61771
 Alpha  occ. eigenvalues --   -0.58337  -0.50208  -0.48896  -0.46437  -0.45771
 Alpha  occ. eigenvalues --   -0.43408  -0.42226  -0.41405  -0.40079  -0.38118
 Alpha  occ. eigenvalues --   -0.37643  -0.36431  -0.36343  -0.34760  -0.33648
 Alpha  occ. eigenvalues --   -0.22711  -0.22240  -0.21563
 Alpha virt. eigenvalues --    0.08373   0.08630   0.10497   0.12744   0.13252
 Alpha virt. eigenvalues --    0.14168   0.15400   0.15920   0.16287   0.16835
 Alpha virt. eigenvalues --    0.17849   0.18265   0.18467   0.19274   0.20482

 Mulliken charges:
               1
     1  C   -0.308116
     2  N   -0.280734
     3  C   -0.138960
     4  C   -0.137348
     5  N   -0.066992
     6  C   -0.295911
     7  N   -0.256957
     8  C   -0.290397
     9  H    0.116046
    10  H    0.092703
    11  H    0.121420
    12  H    0.213498
    13  H    0.103381
    14  H    0.086202
    15  H    0.093253
    16  H    0.082929
    17  H    0.116367
    18  H    0.126772
    19  H    0.086280
    20  H    0.200957
    21  H    0.129473
    22  H    0.092372
    23  H    0.113763
 Sum of Mulliken charges =   0.00000

 Dipole moment (field-independent basis, Debye):
    X=              0.6233    Y=             -0.8630    Z=             -0.1021  Tot=              1.0695
 Quadrupole moment (field-independent basis, Debye-Ang):
   XX=            -53.0078   YY=            -48.7060   ZZ=            -53.3919
   XY=              1.0024   XZ=              3.1774   YZ=              0.3581

  Exact polarizability:  96.335   2.818  78.930   0.932   0.359  68.212
 Approx polarizability: 112.464   3.055 109.612   0.852   1.216 103.994

                      1                      2                      3
                      A                      A                      A
 Frequencies --     52.3774                72.6009               115.3473
 Red. masses --      1.9651                 2.2977                 2.7911
 Frc consts  --      0.0032                 0.0071                 0.0219
 IR Inten    --      1.7415                 1.1033                 1.3328

                      4                      5                      6
                      A                      A                      A
 Frequencies --    139.2320               143.7618               213.4016
 Red. masses --      2.0088                 2.1528                 1.4029
 Frc consts  --      0.0229                 0.0262                 0.0376
 IR Inten    --      0.5679                 0.8781                 0.1467

                      7                      8                      9
                      A                      A                      A
 Frequencies --    222.5779               247.8254               300.8257
 Red. masses --      1.1750                 1.1399                 1.9591
 Frc consts  --      0.0343                 0.0413                 0.1045
 IR Inten    --      0.4363                 0.9608                 3.7586

                     10                     11                     12
                      A                      A                      A
 Frequencies --    325.1662               349.1749               459.2316
 Red. masses --      2.6970                 2.8021                 2.7165
 Frc consts  --      0.1680                 0.2013                 0.3375
 IR Inten    --      2.5477                 0.9294                 8.5416

                     13                     14                     15
                      A                      A                      A
 Frequencies --    476.4575               516.2120               772.7987
 Red. masses --      2.8218                 2.8697                 2.2226
 Frc consts  --      0.3774                 0.4505                 0.7821
 IR Inten    --      5.2057                 1.6927                49.3544

                     16                     17                     18
                      A                      A                      A
 Frequencies --    782.9879               824.6826               901.7127
 Red. masses --      1.2773                 1.2137                 1.6993
 Frc consts  --      0.4614                 0.4863                 0.8141
 IR Inten    --     59.4205                 9.3450                57.4243

                     19                     20                     21
                      A                      A                      A
 Frequencies --    980.2772               994.6035              1050.6607
 Red. masses --      2.0853                 2.0387                 2.2573
 Frc consts  --      1.1806                 1.1883                 1.4681
 IR Inten    --     12.7302                 7.2306                 9.2385

                     22                     23                     24
                      A                      A                      A
 Frequencies --   1082.1443              1095.5673              1135.0095
 Red. masses --      1.6695                 2.0050                 1.8108
 Frc consts  --      1.1518                 1.4179                 1.3744
 IR Inten    --      5.6381                12.2608                 3.0226

                     25                     26                     27
                      A                      A                      A
 Frequencies --   1136.2070              1147.3672              1158.4296
 Red. masses --      1.5924                 2.4321                 1.4152
 Frc consts  --      1.2112                 1.8864                 1.1189
 IR Inten    --      7.9541                31.9746                 6.3871

                     28                     29                     30
                      A                      A                      A
 Frequencies --   1180.7998              1218.4215              1247.6913
 Red. masses --      2.0812                 1.7731                 2.9165
 Frc consts  --      1.7097                 1.5509                 2.6750
 IR Inten    --     21.8302                 3.5425                 5.5668

                     31                     32                     33
                      A                      A                      A
 Frequencies --   1251.9792              1276.6879              1323.4190
 Red. masses --      2.1253                 1.3537                 1.1448
 Frc consts  --      1.9627                 1.3000                 1.1814
 IR Inten    --      0.8747                22.3350                 3.8887

                     34                     35                     36
                      A                      A                      A
 Frequencies --   1351.6078              1416.1938              1444.1076
 Red. masses --      1.3695                 1.4045                 1.1757
 Frc consts  --      1.4740                 1.6596                 1.4447
 IR Inten    --      6.5457                 0.5826                 0.4444

                     37                     38                     39
                      A                      A                      A
 Frequencies --   1446.5206              1459.6729              1478.2060
 Red. masses --      1.1567                 1.1753                 1.0842
 Frc consts  --      1.4260                 1.4754                 1.3958
 IR Inten    --      0.3042                 3.2625                 5.8778

                     40                     41                     42
                      A                      A                      A
 Frequencies --   1479.3116              1487.0607              1489.4440
 Red. masses --      1.0751                 1.0965                 1.0876
 Frc consts  --      1.3862                 1.4286                 1.4216
 IR Inten    --      6.0643                11.5293                 4.8087

                     43                     44                     45
                      A                      A                      A
 Frequencies --   1493.3046              1500.2550              1508.3086
 Red. masses --      1.1385                 1.0570                 1.0920
 Frc consts  --      1.4959                 1.4017                 1.4638
 IR Inten    --      3.5415                 3.4690                 6.2362

                     46                     47                     48
                      A                      A                      A
 Frequencies --   1516.7176              1524.3846              1528.8298
 Red. masses --      1.0686                 1.0775                 1.1091
 Frc consts  --      1.4484                 1.4752                 1.5274
 IR Inten    --     12.0183                 1.0115                 9.9311

                     49                     50                     51
                      A                      A                      A
 Frequencies --   2918.2036              2931.6357              2935.8671
 Red. masses --      1.0706                 1.0631                 1.0663
 Frc consts  --      5.3719                 5.3834                 5.4151
 IR Inten    --     11.5848                55.1195                71.2582

                     52                     53                     54
                      A                      A                      A
 Frequencies --   2940.9381              2959.8511              3036.8307
 Red. masses --      1.0624                 1.0574                 1.0843
 Frc consts  --      5.4138                 5.4579                 5.8918
 IR Inten    --    157.0559                65.2507                 0.4446

                     55                     56                     57
                      A                      A                      A
 Frequencies --   3052.6367              3055.9249              3068.1903
 Red. masses --      1.0740                 1.0901                 1.0744
 Frc consts  --      5.8969                 5.9977                 5.9589
 IR Inten    --     35.3956                57.6665                42.6327

                     58                     59                     60
                      A                      A                      A
 Frequencies --   3081.2901              3100.5993              3116.1008
 Red. masses --      1.0725                 1.1009                 1.1025
 Frc consts  --      5.9992                 6.2358                 6.3072
 IR Inten    --     36.6249                31.9639                20.0803

                     61                     62                     63
                      A                      A                      A
 Frequencies --   3136.6364              3381.1154              3506.8370
 Red. masses --      1.1009                 1.0734                 1.0735
 Frc consts  --      6.3818                 7.2296                 7.7781
 IR Inten    --     20.2043                17.6687                 0.4489

 - Thermochemistry -
 -------------------
 Temperature   298.150 Kelvin.  Pressure   1.00000 Atm.
 Atom     1 has atomic number  6 and mass  12.00000

 Molecular mass:   117.12660 amu.
 Principal axes and moments of inertia in atomic units:
                           1         2         3
     Eigenvalues --   449.738622121.481612421.23041
           X            0.99995   0.00755   0.00577
           Y           -0.00751   0.99995  -0.00703
           Z           -0.00582   0.00698   0.99996
 This molecule is an asymmetric top.
 Rotational symmetry number  1.
 Warning -- assumption of classical behavior for rotation
           may cause significant error
 Rotational temperatures (Kelvin)      0.19259     0.04083     0.03577
 Rotational constants (GHZ):           4.01287     0.85070     0.74538
 Zero-point vibrational energy     553525.4 (Joules/Mol)
                                  132.29575 (Kcal/Mol)
 Warning -- explicit consideration of  14 degrees of freedom as
           vibrations may cause significant error
 Vibrational temperatures:     75.36   104.46   165.96   200.32   206.84
          (Kelvin)            307.04   320.24   356.57   432.82   467.84
                              502.38   660.73   685.52   742.71  1111.88
                             1126.54  1186.53  1297.36  1410.40  1431.01
                             1511.67  1556.96  1576.28  1633.03  1634.75
                             1650.81  1666.72  1698.91  1753.04  1795.15
                             1801.32  1836.87  1904.10  1944.66  2037.59
                             2077.75  2081.22  2100.14  2126.81  2128.40
                             2139.55  2142.98  2148.53  2158.53  2170.12
                             2182.22  2193.25  2199.65  4198.64  4217.97
                             4224.06  4231.35  4258.57  4369.32  4392.06
                             4396.79  4414.44  4433.29  4461.07  4483.37
                             4512.92  4864.67  5045.56

 Zero-point correction=                           0.210827 (Hartree/Particle)
 Thermal correction to Energy=                    0.221443
 Thermal correction to Enthalpy=                  0.222387
 Thermal correction to Gibbs Free Energy=         0.174667
 Sum of electronic and zero-point Energies=           -363.575520
 Sum of electronic and thermal Energies=              -363.564904
 Sum of electronic and thermal Enthalpies=            -363.563960
 Sum of electronic and thermal Free Energies=         -363.611680

                     E (Thermal)             CV                S
                      KCal/Mol        Cal/Mol-Kelvin    Cal/Mol-Kelvin
 Total                  138.957             37.239            100.434
 Electronic               0.000              0.000              0.000
 Translational            0.889              2.981             40.189
 Rotational               0.889              2.981             29.226
 Vibrational            137.180             31.277             31.019
 Vibration     1          0.596              1.977              4.726
 Vibration     2          0.599              1.967              4.082
 Vibration     3          0.608              1.937              3.177
 Vibration     4          0.615              1.914              2.814
 Vibration     5          0.616              1.909              2.753
 Vibration     6          0.644              1.821              2.014
 Vibration     7          0.648              1.807              1.938
 Vibration     8          0.661              1.766              1.746
 Vibration     9          0.693              1.672              1.412
 Vibration    10          0.709              1.625              1.284
 Vibration    11          0.726              1.577              1.170
 Vibration    12          0.817              1.340              0.768
 Vibration    13          0.833              1.302              0.720
 Vibration    14          0.871              1.214              0.619

 Optimization completed.
    -- Stationary point found.
 Normal termination of Gaussian 16 at Tue Jun  1 17:51:52 2021.
