 Gaussian 16, Revision A.03,
 Gaussian 16:  ES64L-G16RevA.03 25-Dec-2016

 -----------------------------
 # opt freq b3lyp/6-31g(2df,p)
 -----------------------------

 -------------------
 Title Card Required
 -------------------
 Symbolic Z-matrix:
 Charge =  0 Multiplicity = 1

 SCF Done:  E(RB3LYP) =  -371.072618406     A.U. after   12 cycles
 SCF Done:  E(RB3LYP) =  -371.074931064     A.U. after   10 cycles
 SCF Done:  E(RB3LYP) =  -371.075263872     A.U. after   10 cycles
 SCF Done:  E(RB3LYP) =  -371.075418001     A.U. after    9 cycles
 SCF Done:  E(RB3LYP) =  -371.075452702     A.U. after    8 cycles
 SCF Done:  E(RB3LYP) =  -371.075468776     A.U. after    8 cycles
 SCF Done:  E(RB3LYP) =  -371.075472188     A.U. after    7 cycles
 SCF Done:  E(RB3LYP) =  -371.075472561     A.U. after    6 cycles
 SCF Done:  E(RB3LYP) =  -371.075472605     A.U. after    6 cycles
 SCF Done:  E(RB3LYP) =  -371.075472613     A.U. after    6 cycles
 SCF Done:  E(RB3LYP) =  -371.075472613     A.U. after    6 cycles
 Optimization completed on the basis of negligible forces.
    -- Stationary point found.
 Normal termination of Gaussian 16 at Tue Jun  1 13:51:35 2021.

 ----------------------------------------------------------------------
 #N Geom=AllCheck Guess=TCheck SCRF=Check GenChk RB3LYP/6-31G(2df,p) Fr
 eq
 ----------------------------------------------------------------------

 Structure from the checkpoint file:  "CNCCCpCpCpCpC.chk"
 -------------------
 Title Card Required
 -------------------
 Charge =  0 Multiplicity = 1

                         Standard orientation:
 ---------------------------------------------------------------------
 Center     Atomic      Atomic             Coordinates (Angstroms)
 Number     Number       Type             X           Y           Z
 ---------------------------------------------------------------------
      1          6           0        4.173128   -0.059981    0.193466
      2          7           0        2.883298   -0.543866   -0.276219
      3          6           0        1.762234    0.276556    0.166937
      4          6           0        0.436827   -0.298637   -0.340202
      5          6           0       -0.828678    0.400489    0.197754
      6          6           0       -0.821771    1.895731   -0.163600
      7          6           0       -2.126199   -0.303712   -0.287874
      8          6           0       -2.170451   -1.794380    0.089233
      9          6           0       -3.397171    0.381979    0.241816
     10          1           0        4.962770   -0.750589   -0.117723
     11          1           0        4.240210    0.067898    1.289910
     12          1           0        4.386132    0.914334   -0.261838
     13          1           0        2.744732   -1.497155    0.044627
     14          1           0        1.922642    1.285946   -0.230505
     15          1           0        1.720773    0.383769    1.270313
     16          1           0        0.411640   -1.357278   -0.057333
     17          1           0        0.438410   -0.274759   -1.437895
     18          1           0       -0.811717    0.320688    1.296590
     19          1           0       -0.865344    2.034874   -1.251041
     20          1           0        0.084375    2.390074    0.196083
     21          1           0       -1.668611    2.427542    0.275576
     22          1           0       -2.142701   -0.235018   -1.386322
     23          1           0       -2.066736   -1.927855    1.173346
     24          1           0       -1.385070   -2.377718   -0.396897
     25          1           0       -3.129137   -2.234306   -0.204302
     26          1           0       -3.397393    0.414109    1.338528
     27          1           0       -4.288861   -0.171627   -0.069949
     28          1           0       -3.506713    1.405864   -0.122804
 ---------------------------------------------------------------------

 SCF Done:  E(RB3LYP) =  -371.075472613     A.U. after    1 cycles

 The electronic state is 1-A.
 Alpha  occ. eigenvalues --  -14.30563 -10.19598 -10.19403 -10.18225 -10.18164
 Alpha  occ. eigenvalues --  -10.17099 -10.16767 -10.16716 -10.16669  -0.89319
 Alpha  occ. eigenvalues --   -0.81492  -0.75351  -0.70979  -0.67747  -0.65089
 Alpha  occ. eigenvalues --   -0.61986  -0.58318  -0.54518  -0.48010  -0.46197
 Alpha  occ. eigenvalues --   -0.44585  -0.43585  -0.42540  -0.42134  -0.40191
 Alpha  occ. eigenvalues --   -0.39522  -0.37925  -0.37200  -0.35899  -0.35433
 Alpha  occ. eigenvalues --   -0.34743  -0.34477  -0.32736  -0.31216  -0.30441
 Alpha  occ. eigenvalues --   -0.29861  -0.21474
 Alpha virt. eigenvalues --    0.08302   0.09189   0.10942   0.11402   0.12846
 Alpha virt. eigenvalues --    0.13784   0.14793   0.15379   0.15779   0.16520
 Alpha virt. eigenvalues --    0.17062   0.17669   0.17901   0.18363   0.18956

 Mulliken charges:
               1
     1  C   -0.307526
     2  N   -0.279731
     3  C   -0.132044
     4  C   -0.200026
     5  C    0.042423
     6  C   -0.404940
     7  C    0.052800
     8  C   -0.397203
     9  C   -0.398743
    10  H    0.114250
    11  H    0.089032
    12  H    0.119557
    13  H    0.210733
    14  H    0.102046
    15  H    0.068419
    16  H    0.086560
    17  H    0.100344
    18  H    0.063514
    19  H    0.110314
    20  H    0.116020
    21  H    0.113502
    22  H    0.068161
    23  H    0.108341
    24  H    0.115847
    25  H    0.107458
    26  H    0.108911
    27  H    0.107621
    28  H    0.114361
 Sum of Mulliken charges =  -0.00000

 Dipole moment (field-independent basis, Debye):
    X=             -0.1185    Y=             -0.2278    Z=              0.7341  Tot=              0.7778
 Quadrupole moment (field-independent basis, Debye-Ang):
   XX=            -60.2859   YY=            -59.3565   ZZ=            -61.6339
   XY=             -0.6252   XZ=              2.5693   YZ=             -0.9402

  Exact polarizability: 117.840   0.239  93.537   0.388   0.176  81.262
 Approx polarizability: 135.729   0.143 131.572   0.265   0.546 128.871

                      1                      2                      3
                      A                      A                      A
 Frequencies --     30.1547                51.9513                89.6063
 Red. masses --      1.9912                 2.4495                 2.0953
 Frc consts  --      0.0011                 0.0039                 0.0099
 IR Inten    --      0.5400                 0.5607                 0.6966

                      4                      5                      6
                      A                      A                      A
 Frequencies --    110.3659               131.1848               191.9591
 Red. masses --      3.0428                 2.0664                 1.4394
 Frc consts  --      0.0218                 0.0210                 0.0313
 IR Inten    --      0.0815                 1.2965                 0.0109

                      7                      8                      9
                      A                      A                      A
 Frequencies --    203.3185               227.9296               249.4866
 Red. masses --      1.0764                 1.1906                 1.1657
 Frc consts  --      0.0262                 0.0364                 0.0428
 IR Inten    --      0.0279                 0.0265                 1.0247

                     10                     11                     12
                      A                      A                      A
 Frequencies --    265.0943               300.6369               350.2979
 Red. masses --      2.0021                 3.1745                 2.0388
 Frc consts  --      0.0829                 0.1690                 0.1474
 IR Inten    --      0.3534                 0.9578                 0.4727

                     13                     14                     15
                      A                      A                      A
 Frequencies --    370.6780               407.0198               456.6885
 Red. masses --      2.0656                 2.2444                 2.3622
 Frc consts  --      0.1672                 0.2191                 0.2903
 IR Inten    --      0.4678                 0.3799                 0.2590

                     16                     17                     18
                      A                      A                      A
 Frequencies --    469.9743               525.6593               767.3279
 Red. masses --      2.6309                 2.3482                 1.4870
 Frc consts  --      0.3424                 0.3823                 0.5158
 IR Inten    --      2.2567                 0.2638                33.5439

                     19                     20                     21
                      A                      A                      A
 Frequencies --    790.3668               803.1913               877.7580
 Red. masses --      1.4346                 1.4272                 2.5510
 Frc consts  --      0.5280                 0.5425                 1.1580
 IR Inten    --     48.6427                 0.6828                 1.9621

                     22                     23                     24
                      A                      A                      A
 Frequencies --    926.4941               942.7290               961.8077
 Red. masses --      1.1691                 1.8237                 1.3698
 Frc consts  --      0.5913                 0.9549                 0.7466
 IR Inten    --      0.6778                 0.6157                 0.3211

                     25                     26                     27
                      A                      A                      A
 Frequencies --    966.0133               985.7018              1002.2181
 Red. masses --      1.4785                 1.7897                 1.3078
 Frc consts  --      0.8129                 1.0245                 0.7740
 IR Inten    --      0.1056                 5.6600                 9.2917

                     28                     29                     30
                      A                      A                      A
 Frequencies --   1043.8975              1076.2598              1109.1167
 Red. masses --      3.0347                 2.3751                 1.4105
 Frc consts  --      1.9484                 1.6209                 1.0223
 IR Inten    --      2.3382                 4.2994                 1.7457

                     31                     32                     33
                      A                      A                      A
 Frequencies --   1137.3815              1157.5153              1175.3759
 Red. masses --      1.7252                 3.0576                 1.9530
 Frc consts  --      1.3149                 2.4137                 1.5897
 IR Inten    --      2.9732                48.3245                 7.6867

                     34                     35                     36
                      A                      A                      A
 Frequencies --   1185.8573              1195.8971              1205.0833
 Red. masses --      1.8051                 1.9294                 1.8637
 Frc consts  --      1.4956                 1.6258                 1.5946
 IR Inten    --      1.9639                 5.5855                 0.4510

                     37                     38                     39
                      A                      A                      A
 Frequencies --   1256.2143              1299.6393              1320.5599
 Red. masses --      1.4811                 1.3695                 1.1397
 Frc consts  --      1.3771                 1.3628                 1.1710
 IR Inten    --     10.9134                 1.8626                 0.7120

                     40                     41                     42
                      A                      A                      A
 Frequencies --   1333.8792              1346.7260              1363.8252
 Red. masses --      1.3065                 1.3103                 1.3863
 Frc consts  --      1.3696                 1.4002                 1.5193
 IR Inten    --      3.5754                 3.2317                 0.8527

                     43                     44                     45
                      A                      A                      A
 Frequencies --   1377.8791              1397.9577              1407.8340
 Red. masses --      1.3990                 1.2926                 1.3229
 Frc consts  --      1.5649                 1.4883                 1.5449
 IR Inten    --      2.9379                 2.8059                 9.7994

                     46                     47                     48
                      A                      A                      A
 Frequencies --   1412.1524              1422.8340              1459.3298
 Red. masses --      1.2985                 1.2146                 1.1793
 Frc consts  --      1.5257                 1.4487                 1.4797
 IR Inten    --     11.9570                 1.4279                 1.7385

                     49                     50                     51
                      A                      A                      A
 Frequencies --   1480.6959              1484.1823              1488.1855
 Red. masses --      1.0923                 1.1328                 1.0554
 Frc consts  --      1.4110                 1.4703                 1.3771
 IR Inten    --      0.2618                13.1901                 0.3854

                     52                     53                     54
                      A                      A                      A
 Frequencies --   1490.4089              1495.6099              1498.6932
 Red. masses --      1.0722                 1.0676                 1.0623
 Frc consts  --      1.4033                 1.4069                 1.4057
 IR Inten    --      5.4952                 0.3418                 0.9780

                     55                     56                     57
                      A                      A                      A
 Frequencies --   1504.9054              1511.3714              1516.3500
 Red. masses --      1.0523                 1.0489                 1.0643
 Frc consts  --      1.4041                 1.4116                 1.4418
 IR Inten    --      3.2628                12.5193                11.4826

                     58                     59                     60
                      A                      A                      A
 Frequencies --   1524.3578              1525.1393              2890.5136
 Red. masses --      1.0778                 1.0504                 1.0732
 Frc consts  --      1.4756                 1.4395                 5.2829
 IR Inten    --      1.5921                 6.0275                64.0164

                     61                     62                     63
                      A                      A                      A
 Frequencies --   2932.8443              2973.2947              2991.3209
 Red. masses --      1.0604                 1.0796                 1.0834
 Frc consts  --      5.3742                 5.6231                 5.7118
 IR Inten    --    103.9861                 5.9109                27.5205

                     64                     65                     66
                      A                      A                      A
 Frequencies --   3021.9448              3024.6204              3029.6382
 Red. masses --      1.0554                 1.0421                 1.0399
 Frc consts  --      5.6785                 5.6168                 5.6238
 IR Inten    --     16.1073                30.4427                39.0231

                     67                     68                     69
                      A                      A                      A
 Frequencies --   3032.3967              3039.7010              3049.8545
 Red. masses --      1.0467                 1.0823                 1.0728
 Frc consts  --      5.6706                 5.8921                 5.8792
 IR Inten    --      7.7152                10.1100                42.0314

                     70                     71                     72
                      A                      A                      A
 Frequencies --   3067.9212              3085.6207              3093.0282
 Red. masses --      1.1006                 1.0995                 1.0984
 Frc consts  --      6.1035                 6.1677                 6.1913
 IR Inten    --     62.9528                 0.2265                68.4449

                     73                     74                     75
                      A                      A                      A
 Frequencies --   3098.5706              3102.9057              3111.8395
 Red. masses --      1.1006                 1.0940                 1.0998
 Frc consts  --      6.2261                 6.2059                 6.2749
 IR Inten    --     32.8391                28.7872                35.4937

                     76                     77                     78
                      A                      A                      A
 Frequencies --   3115.3611              3124.7115              3508.0728
 Red. masses --      1.0981                 1.0977                 1.0735
 Frc consts  --      6.2793                 6.3145                 7.7839
 IR Inten    --     45.2044                27.4847                 0.5145

 - Thermochemistry -
 -------------------
 Temperature   298.150 Kelvin.  Pressure   1.00000 Atm.
 Atom     1 has atomic number  6 and mass  12.00000

 Molecular mass:   129.15175 amu.
 Principal axes and moments of inertia in atomic units:
                           1         2         3
     Eigenvalues --   545.994072839.445853242.13110
           X            0.99999   0.00343   0.00318
           Y           -0.00342   0.99998  -0.00515
           Z           -0.00320   0.00514   0.99998
 This molecule is an asymmetric top.
 Rotational symmetry number  1.
 Warning -- assumption of classical behavior for rotation
           may cause significant error
 Rotational temperatures (Kelvin)      0.15864     0.03050     0.02672
 Rotational constants (GHZ):           3.30542     0.63560     0.55665
 Zero-point vibrational energy     687582.9 (Joules/Mol)
                                  164.33626 (Kcal/Mol)
 Warning -- explicit consideration of  17 degrees of freedom as
           vibrations may cause significant error
 Vibrational temperatures:     43.39    74.75   128.92   158.79   188.75
          (Kelvin)            276.19   292.53   327.94   358.96   381.41
                              432.55   504.00   533.32   585.61   657.07
                              676.19   756.31  1104.01  1137.16  1155.61
                             1262.90  1333.02  1356.38  1383.83  1389.88
                             1418.20  1441.97  1501.94  1548.50  1595.77
                             1636.44  1665.41  1691.10  1706.18  1720.63
                             1733.85  1807.41  1869.89  1899.99  1919.15
                             1937.64  1962.24  1982.46  2011.35  2025.56
                             2031.77  2047.14  2099.65  2130.39  2135.41
                             2141.17  2144.37  2151.85  2156.29  2165.22
                             2174.53  2181.69  2193.21  2194.34  4158.80
                             4219.71  4277.91  4303.84  4347.90  4351.75
                             4358.97  4362.94  4373.45  4388.06  4414.05
                             4439.52  4450.18  4458.15  4464.39  4477.24
                             4482.31  4495.76  5047.33

 Zero-point correction=                           0.261887 (Hartree/Particle)
 Thermal correction to Energy=                    0.274220
 Thermal correction to Enthalpy=                  0.275164
 Thermal correction to Gibbs Free Energy=         0.223139
 Sum of electronic and zero-point Energies=           -370.813586
 Sum of electronic and thermal Energies=              -370.801253
 Sum of electronic and thermal Enthalpies=            -370.800309
 Sum of electronic and thermal Free Energies=         -370.852334

                     E (Thermal)             CV                S
                      KCal/Mol        Cal/Mol-Kelvin    Cal/Mol-Kelvin
 Total                  172.075             44.383            109.496
 Electronic               0.000              0.000              0.000
 Translational            0.889              2.981             40.481
 Rotational               0.889              2.981             29.998
 Vibrational            170.298             38.421             39.018
 Vibration     1          0.594              1.984              5.819
 Vibration     2          0.596              1.977              4.742
 Vibration     3          0.602              1.957              3.669
 Vibration     4          0.606              1.941              3.262
 Vibration     5          0.612              1.922              2.929
 Vibration     6          0.634              1.851              2.209
 Vibration     7          0.639              1.835              2.103
 Vibration     8          0.651              1.798              1.895
 Vibration     9          0.662              1.764              1.734
 Vibration    10          0.671              1.737              1.628
 Vibration    11          0.693              1.672              1.413
 Vibration    12          0.727              1.575              1.165
 Vibration    13          0.743              1.532              1.077
 Vibration    14          0.772              1.455              0.937
 Vibration    15          0.815              1.346              0.776
 Vibration    16          0.827              1.317              0.738
 Vibration    17          0.881              1.193              0.597

 Optimization completed on the basis of negligible forces.
    -- Stationary point found.
 Normal termination of Gaussian 16 at Tue Jun  1 14:37:30 2021.
