 Gaussian 16, Revision A.03,
 Gaussian 16:  ES64L-G16RevA.03 25-Dec-2016

 -----------------------------
 # opt freq b3lyp/6-31g(2df,p)
 -----------------------------

 -------------------
 Title Card Required
 -------------------
 Symbolic Z-matrix:
 Charge =  0 Multiplicity = 1

 SCF Done:  E(RB3LYP) =  -403.134277811     A.U. after   12 cycles
 SCF Done:  E(RB3LYP) =  -403.138575044     A.U. after   10 cycles
 SCF Done:  E(RB3LYP) =  -403.138886308     A.U. after    9 cycles
 SCF Done:  E(RB3LYP) =  -403.138963043     A.U. after   10 cycles
 SCF Done:  E(RB3LYP) =  -403.138972911     A.U. after    8 cycles
 SCF Done:  E(RB3LYP) =  -403.138977897     A.U. after    8 cycles
 SCF Done:  E(RB3LYP) =  -403.138978375     A.U. after    6 cycles
 SCF Done:  E(RB3LYP) =  -403.138978491     A.U. after    6 cycles
 Optimization completed.
    -- Stationary point found.
 Normal termination of Gaussian 16 at Tue Jun  1 17:59:16 2021.

 ----------------------------------------------------------------------
 #N Geom=AllCheck Guess=TCheck SCRF=Check GenChk RB3LYP/6-31G(2df,p) Fr
 eq
 ----------------------------------------------------------------------

 Structure from the checkpoint file:  "CNCCNCCpCpN.chk"
 -------------------
 Title Card Required
 -------------------
 Charge =  0 Multiplicity = 1

                         Standard orientation:
 ---------------------------------------------------------------------
 Center     Atomic      Atomic             Coordinates (Angstroms)
 Number     Number       Type             X           Y           Z
 ---------------------------------------------------------------------
      1          6           0       -4.625758    0.348469   -0.102983
      2          7           0       -3.426057   -0.414828    0.210321
      3          6           0       -2.194804    0.277158   -0.147138
      4          6           0       -0.971398   -0.562722    0.214924
      5          7           0        0.259737    0.130943   -0.145982
      6          6           0        1.465274   -0.628833    0.160299
      7          6           0        2.737305    0.044837   -0.369280
      8          6           0        2.948443    1.450223    0.215046
      9          7           0        3.859587   -0.874324   -0.128161
     10          1           0       -5.513381   -0.247934    0.128484
     11          1           0       -4.695489    0.675282   -1.156728
     12          1           0       -4.658847    1.248960    0.521398
     13          1           0       -3.459625   -1.303886   -0.279117
     14          1           0       -2.167368    1.220770    0.417423
     15          1           0       -2.136317    0.553705   -1.215945
     16          1           0       -1.001007   -1.506654   -0.347635
     17          1           0       -1.029150   -0.835542    1.284139
     18          1           0        0.286587    1.017738    0.347958
     19          1           0        1.383217   -1.610780   -0.317715
     20          1           0        1.588477   -0.822098    1.246426
     21          1           0        2.625735    0.135942   -1.456726
     22          1           0        3.005874    1.412994    1.310588
     23          1           0        2.142563    2.138046   -0.064109
     24          1           0        3.884887    1.882784   -0.153436
     25          1           0        4.025071   -0.947153    0.873783
     26          1           0        4.711526   -0.479508   -0.517247
 ---------------------------------------------------------------------

 SCF Done:  E(RB3LYP) =  -403.138978491     A.U. after    1 cycles

 The electronic state is 1-A.
 Alpha  occ. eigenvalues --  -14.30825 -14.30732 -14.30323 -10.20473 -10.19763
 Alpha  occ. eigenvalues --  -10.19739 -10.19566 -10.19507 -10.17292  -0.90712
 Alpha  occ. eigenvalues --   -0.89092  -0.87171  -0.74617  -0.71488  -0.66904
 Alpha  occ. eigenvalues --   -0.63325  -0.59808  -0.56975  -0.50104  -0.48293
 Alpha  occ. eigenvalues --   -0.46739  -0.45373  -0.43576  -0.42581  -0.41488
 Alpha  occ. eigenvalues --   -0.41103  -0.39735  -0.38801  -0.37429  -0.36161
 Alpha  occ. eigenvalues --   -0.34708  -0.34035  -0.33158  -0.31862  -0.23488
 Alpha  occ. eigenvalues --   -0.22151  -0.21291
 Alpha virt. eigenvalues --    0.07695   0.08854   0.09497   0.11210   0.12439
 Alpha virt. eigenvalues --    0.13626   0.13868   0.15427   0.15666   0.16318
 Alpha virt. eigenvalues --    0.17411   0.17707   0.18296   0.19272   0.20077

 Mulliken charges:
               1
     1  C   -0.307232
     2  N   -0.279370
     3  C   -0.137362
     4  C   -0.133742
     5  N   -0.307097
     6  C   -0.101456
     7  C    0.028824
     8  C   -0.396329
     9  N   -0.511478
    10  H    0.115298
    11  H    0.091747
    12  H    0.119579
    13  H    0.214305
    14  H    0.092601
    15  H    0.085745
    16  H    0.095182
    17  H    0.087209
    18  H    0.212291
    19  H    0.112297
    20  H    0.063043
    21  H    0.089150
    22  H    0.104560
    23  H    0.116090
    24  H    0.107048
    25  H    0.217552
    26  H    0.221544
 Sum of Mulliken charges =   0.00000

 Dipole moment (field-independent basis, Debye):
    X=              0.3464    Y=              0.9786    Z=              0.3497  Tot=              1.0954
 Quadrupole moment (field-independent basis, Debye-Ang):
   XX=            -52.5507   YY=            -59.3170   ZZ=            -59.6828
   XY=              4.3058   XZ=              4.8392   YZ=              0.9349

  Exact polarizability: 116.478  -0.737  82.903   0.571  -0.939  75.820
 Approx polarizability: 128.067  -0.821 121.130   0.013  -1.512 117.028

                      1                      2                      3
                      A                      A                      A
 Frequencies --     44.5737                52.9550                76.3573
 Red. masses --      3.2655                 1.9139                 3.4081
 Frc consts  --      0.0038                 0.0032                 0.0117
 IR Inten    --      1.1742                 1.2771                 0.1571

                      4                      5                      6
                      A                      A                      A
 Frequencies --    106.9129               136.3877               155.9470
 Red. masses --      2.4766                 1.9720                 2.3221
 Frc consts  --      0.0167                 0.0216                 0.0333
 IR Inten    --      1.0871                 3.9235                 0.4100

                      7                      8                      9
                      A                      A                      A
 Frequencies --    203.6658               245.3104               252.2712
 Red. masses --      2.5530                 1.4660                 1.2625
 Frc consts  --      0.0624                 0.0520                 0.0473
 IR Inten    --      0.9938                22.8960                 1.9063

                     10                     11                     12
                      A                      A                      A
 Frequencies --    257.6410               276.3775               346.0263
 Red. masses --      1.2391                 1.6221                 3.2352
 Frc consts  --      0.0485                 0.0730                 0.2282
 IR Inten    --     11.6231                 6.9534                 3.4075

                     13                     14                     15
                      A                      A                      A
 Frequencies --    404.8316               435.7507               496.7985
 Red. masses --      2.3683                 2.1551                 2.6060
 Frc consts  --      0.2287                 0.2411                 0.3789
 IR Inten    --      5.3474                 2.6942                 7.9912

                     16                     17                     18
                      A                      A                      A
 Frequencies --    520.8566               782.6752               790.0614
 Red. masses --      3.7803                 1.2315                 1.2122
 Frc consts  --      0.6042                 0.4445                 0.4458
 IR Inten    --      4.1126                76.0953                60.2366

                     19                     20                     21
                      A                      A                      A
 Frequencies --    819.4094               837.5384               895.6823
 Red. masses --      1.3659                 2.0412                 1.3795
 Frc consts  --      0.5404                 0.8436                 0.6520
 IR Inten    --      4.2570                26.1182               134.7427

                     22                     23                     24
                      A                      A                      A
 Frequencies --    917.1685               965.2141               983.8622
 Red. masses --      1.2849                 1.7051                 2.0283
 Frc consts  --      0.6368                 0.9359                 1.1568
 IR Inten    --      9.4994                 2.0153                 3.0904

                     25                     26                     27
                      A                      A                      A
 Frequencies --   1033.9211              1048.0892              1059.5941
 Red. masses --      1.7789                 1.8724                 3.0509
 Frc consts  --      1.1204                 1.2118                 2.0182
 IR Inten    --      0.5887                 1.4511                 8.8757

                     28                     29                     30
                      A                      A                      A
 Frequencies --   1090.7225              1120.9229              1146.5777
 Red. masses --      1.5837                 1.4685                 2.3815
 Frc consts  --      1.1100                 1.0871                 1.8446
 IR Inten    --      0.4508                21.6699                 3.6066

                     31                     32                     33
                      A                      A                      A
 Frequencies --   1158.6064              1171.0534              1182.5540
 Red. masses --      2.8837                 1.8745                 2.1541
 Frc consts  --      2.2807                 1.5146                 1.7749
 IR Inten    --     48.5434                27.5251                55.4235

                     34                     35                     36
                      A                      A                      A
 Frequencies --   1201.0191              1233.9873              1263.5644
 Red. masses --      1.7121                 1.7316                 1.4865
 Frc consts  --      1.4551                 1.5535                 1.3984
 IR Inten    --      8.1055                 1.8444                13.0289

                     37                     38                     39
                      A                      A                      A
 Frequencies --   1290.9944              1314.2958              1332.8638
 Red. masses --      1.2527                 1.1345                 1.3151
 Frc consts  --      1.2301                 1.1547                 1.3765
 IR Inten    --      4.9740                 0.7897                21.4851

                     40                     41                     42
                      A                      A                      A
 Frequencies --   1363.9489              1381.5077              1396.2834
 Red. masses --      1.3488                 1.2558                 1.3276
 Frc consts  --      1.4784                 1.4121                 1.5250
 IR Inten    --      7.1012                 6.9559                10.8605

                     43                     44                     45
                      A                      A                      A
 Frequencies --   1406.3242              1431.9686              1460.1158
 Red. masses --      1.3421                 1.4842                 1.1822
 Frc consts  --      1.5639                 1.7931                 1.4849
 IR Inten    --      4.6614                 0.8406                 3.2228

                     46                     47                     48
                      A                      A                      A
 Frequencies --   1481.8605              1487.1929              1491.4573
 Red. masses --      1.1971                 1.0812                 1.0983
 Frc consts  --      1.5488                 1.4089                 1.4394
 IR Inten    --      0.6473                17.7947                 3.5669

                     49                     50                     51
                      A                      A                      A
 Frequencies --   1496.5599              1503.6320              1511.6253
 Red. masses --      1.1406                 1.0787                 1.0923
 Frc consts  --      1.5052                 1.4369                 1.4706
 IR Inten    --     14.0183                10.9084                 7.2846

                     52                     53                     54
                      A                      A                      A
 Frequencies --   1514.3089              1519.9664              1526.9558
 Red. masses --      1.0857                 1.0670                 1.0877
 Frc consts  --      1.4668                 1.4524                 1.4942
 IR Inten    --     15.4207                11.3727                 0.4210

                     55                     56                     57
                      A                      A                      A
 Frequencies --   1657.2342              2884.7516              2931.0644
 Red. masses --      1.0916                 1.0725                 1.0696
 Frc consts  --      1.7663                 5.2586                 5.4143
 IR Inten    --     23.9005                78.3309                 5.1451

                     58                     59                     60
                      A                      A                      A
 Frequencies --   2937.7700              2945.8138              3004.6034
 Red. masses --      1.0617                 1.0686                 1.0845
 Frc consts  --      5.3987                 5.4635                 5.7681
 IR Inten    --     65.9843               160.5433                 2.4866

                     61                     62                     63
                      A                      A                      A
 Frequencies --   3015.1990              3026.3959              3034.5944
 Red. masses --      1.0372                 1.0931                 1.0828
 Frc consts  --      5.5560                 5.8989                 5.8748
 IR Inten    --     17.1062                69.0403                16.8428

                     64                     65                     66
                      A                      A                      A
 Frequencies --   3050.9450              3067.0527              3086.4527
 Red. masses --      1.0736                 1.0864                 1.0997
 Frc consts  --      5.8879                 6.0211                 6.1723
 IR Inten    --     41.4525                26.7760                41.0278

                     67                     68                     69
                      A                      A                      A
 Frequencies --   3092.0721              3099.5946              3469.5623
 Red. masses --      1.1007                 1.1007                 1.0498
 Frc consts  --      6.2001                 6.2304                 7.4457
 IR Inten    --     41.0550                32.3021                 1.1337

                     70                     71                     72
                      A                      A                      A
 Frequencies --   3507.6234              3508.3002              3548.7911
 Red. masses --      1.0732                 1.0730                 1.0906
 Frc consts  --      7.7799                 7.7811                 8.0927
 IR Inten    --      0.6143                 0.2249                 0.2408

 - Thermochemistry -
 -------------------
 Temperature   298.150 Kelvin.  Pressure   1.00000 Atm.
 Atom     1 has atomic number  6 and mass  12.00000

 Molecular mass:   131.14225 amu.
 Principal axes and moments of inertia in atomic units:
                           1         2         3
     Eigenvalues --   322.204983976.855934181.60442
           X            0.99998   0.00252   0.00558
           Y           -0.00252   1.00000   0.00009
           Z           -0.00558  -0.00010   0.99998
 This molecule is an asymmetric top.
 Rotational symmetry number  1.
 Rotational temperatures (Kelvin)      0.26882     0.02178     0.02071
 Rotational constants (GHZ):           5.60122     0.45381     0.43159
 Zero-point vibrational energy     630997.7 (Joules/Mol)
                                  150.81206 (Kcal/Mol)
 Warning -- explicit consideration of  16 degrees of freedom as
           vibrations may cause significant error
 Vibrational temperatures:     64.13    76.19   109.86   153.82   196.23
          (Kelvin)            224.37   293.03   352.95   362.96   370.69
                              397.65   497.85   582.46   626.95   714.78
                              749.40  1126.10  1136.72  1178.95  1205.03
                             1288.69  1319.60  1388.73  1415.56  1487.58
                             1507.97  1524.52  1569.31  1612.76  1649.67
                             1666.98  1684.88  1701.43  1728.00  1775.43
                             1817.99  1857.45  1890.98  1917.69  1962.42
                             1987.68  2008.94  2023.39  2060.28  2100.78
                             2132.07  2139.74  2145.87  2153.22  2163.39
                             2174.89  2178.75  2186.89  2196.95  2384.39
                             4150.51  4217.15  4226.80  4238.37  4322.95
                             4338.20  4354.31  4366.10  4389.63  4412.80
                             4440.72  4448.80  4459.63  4991.93  5046.69
                             5047.66  5105.92

 Zero-point correction=                           0.240334 (Hartree/Particle)
 Thermal correction to Energy=                    0.252362
 Thermal correction to Enthalpy=                  0.253306
 Thermal correction to Gibbs Free Energy=         0.201808
 Sum of electronic and zero-point Energies=           -402.898644
 Sum of electronic and thermal Energies=              -402.886617
 Sum of electronic and thermal Enthalpies=            -402.885672
 Sum of electronic and thermal Free Energies=         -402.937171

                     E (Thermal)             CV                S
                      KCal/Mol        Cal/Mol-Kelvin    Cal/Mol-Kelvin
 Total                  158.359             42.489            108.388
 Electronic               0.000              0.000              0.000
 Translational            0.889              2.981             40.526
 Rotational               0.889              2.981             30.061
 Vibrational            156.582             36.527             37.800
 Vibration     1          0.595              1.980              5.045
 Vibration     2          0.596              1.976              4.704
 Vibration     3          0.599              1.965              3.982
 Vibration     4          0.606              1.944              3.324
 Vibration     5          0.614              1.917              2.854
 Vibration     6          0.620              1.896              2.598
 Vibration     7          0.639              1.835              2.100
 Vibration     8          0.660              1.771              1.764
 Vibration     9          0.664              1.759              1.715
 Vibration    10          0.667              1.750              1.678
 Vibration    11          0.678              1.717              1.556
 Vibration    12          0.724              1.583              1.184
 Vibration    13          0.770              1.460              0.945
 Vibration    14          0.796              1.392              0.840
 Vibration    15          0.852              1.257              0.666
 Vibration    16          0.876              1.204              0.608

 Optimization completed.
    -- Stationary point found.
 Normal termination of Gaussian 16 at Tue Jun  1 18:32:05 2021.
