 Gaussian 16, Revision A.03,
 Gaussian 16:  ES64L-G16RevA.03 25-Dec-2016

 -----------------------------
 # opt freq b3lyp/6-31g(2df,p)
 -----------------------------

 -------------------
 Title Card Required
 -------------------
 Symbolic Z-matrix:
 Charge =  0 Multiplicity = 1

 SCF Done:  E(RB3LYP) =  -324.469641930     A.U. after   12 cycles
 SCF Done:  E(RB3LYP) =  -324.474254884     A.U. after   10 cycles
 SCF Done:  E(RB3LYP) =  -324.475179073     A.U. after   10 cycles
 SCF Done:  E(RB3LYP) =  -324.475287328     A.U. after   10 cycles
 SCF Done:  E(RB3LYP) =  -324.475307725     A.U. after    9 cycles
 SCF Done:  E(RB3LYP) =  -324.475311454     A.U. after    8 cycles
 SCF Done:  E(RB3LYP) =  -324.475311848     A.U. after    7 cycles
 SCF Done:  E(RB3LYP) =  -324.475311923     A.U. after    6 cycles
 Optimization completed.
    -- Stationary point found.
 Normal termination of Gaussian 16 at Tue Jun  1 20:18:14 2021.

 ----------------------------------------------------------------------
 #N Geom=AllCheck Guess=TCheck SCRF=Check GenChk RB3LYP/6-31G(2df,p) Fr
 eq
 ----------------------------------------------------------------------

 Structure from the checkpoint file:  "CNCCNpCpN.chk"
 -------------------
 Title Card Required
 -------------------
 Charge =  0 Multiplicity = 1

                         Standard orientation:
 ---------------------------------------------------------------------
 Center     Atomic      Atomic             Coordinates (Angstroms)
 Number     Number       Type             X           Y           Z
 ---------------------------------------------------------------------
      1          6           0       -3.344476    0.205456   -0.062364
      2          7           0       -2.103071   -0.490482    0.247333
      3          6           0       -0.914059    0.233210   -0.185130
      4          6           0        0.345583   -0.528639    0.234409
      5          7           0        1.573958    0.011497   -0.344625
      6          6           0        1.893603    1.349964    0.128341
      7          7           0        2.702994   -0.827575   -0.087674
      8          1           0       -4.196802   -0.415606    0.228910
      9          1           0       -3.462131    0.473993   -1.128026
     10          1           0       -3.396766    1.134240    0.517346
     11          1           0       -2.114471   -1.404677   -0.194388
     12          1           0       -0.939042    1.219226    0.294063
     13          1           0       -0.875917    0.412223   -1.275897
     14          1           0        0.256861   -1.564650   -0.118372
     15          1           0        0.395671   -0.572592    1.340473
     16          1           0        1.113336    2.052348   -0.176499
     17          1           0        2.839583    1.659267   -0.318500
     18          1           0        1.994837    1.404692    1.229710
     19          1           0        2.607292   -1.649303   -0.678352
     20          1           0        2.676471   -1.163185    0.882757
 ---------------------------------------------------------------------

 SCF Done:  E(RB3LYP) =  -324.475311923     A.U. after    1 cycles

 The electronic state is 1-A.
 Alpha  occ. eigenvalues --  -14.33969 -14.33038 -14.31243 -10.20211 -10.20186
 Alpha  occ. eigenvalues --  -10.19861 -10.19184  -0.96455  -0.89893  -0.79303
 Alpha  occ. eigenvalues --   -0.73121  -0.66886  -0.62596  -0.58418  -0.50105
 Alpha  occ. eigenvalues --   -0.49026  -0.47758  -0.45273  -0.43105  -0.42114
 Alpha  occ. eigenvalues --   -0.40601  -0.39005  -0.36791  -0.36456  -0.35246
 Alpha  occ. eigenvalues --   -0.34016  -0.24996  -0.22320  -0.21407
 Alpha virt. eigenvalues --    0.07904   0.08498   0.11088   0.12320   0.13802
 Alpha virt. eigenvalues --    0.14166   0.15682   0.16444   0.17185   0.17702
 Alpha virt. eigenvalues --    0.18408   0.19057   0.20206   0.21515   0.22309

 Mulliken charges:
               1
     1  C   -0.308300
     2  N   -0.280937
     3  C   -0.141574
     4  C   -0.125004
     5  N   -0.069216
     6  C   -0.289518
     7  N   -0.464828
     8  H    0.116408
     9  H    0.093010
    10  H    0.121683
    11  H    0.213597
    12  H    0.104618
    13  H    0.087168
    14  H    0.083179
    15  H    0.080631
    16  H    0.118326
    17  H    0.131046
    18  H    0.084922
    19  H    0.236703
    20  H    0.208087
 Sum of Mulliken charges =  -0.00000

 Dipole moment (field-independent basis, Debye):
    X=             -1.0762    Y=             -0.8300    Z=              0.0046  Tot=              1.3591
 Quadrupole moment (field-independent basis, Debye-Ang):
   XX=            -48.6672   YY=            -40.7541   ZZ=            -47.1783
   XY=             -1.3164   XZ=              3.6810   YZ=              1.4040

  Exact polarizability:  83.195  -1.728  67.256   1.160   0.054  58.189
 Approx polarizability:  96.149  -2.378  95.474   0.387   0.088  89.421

                      1                      2                      3
                      A                      A                      A
 Frequencies --     70.3047                84.8035               131.5726
 Red. masses --      2.0542                 2.3416                 2.7517
 Frc consts  --      0.0060                 0.0099                 0.0281
 IR Inten    --      2.3119                 1.5802                 1.5226

                      4                      5                      6
                      A                      A                      A
 Frequencies --    156.5175               247.3161               252.4755
 Red. masses --      2.2549                 1.1046                 1.2307
 Frc consts  --      0.0325                 0.0398                 0.0462
 IR Inten    --      0.2902                 1.8290                 1.4946

                      7                      8                      9
                      A                      A                      A
 Frequencies --    308.5050               324.0531               335.8411
 Red. masses --      1.1709                 2.6581                 3.3651
 Frc consts  --      0.0657                 0.1645                 0.2236
 IR Inten    --     32.9310                 1.8106                 2.7398

                     10                     11                     12
                      A                      A                      A
 Frequencies --    398.1871               498.1332               510.5770
 Red. masses --      2.0515                 2.7279                 2.7338
 Frc consts  --      0.1916                 0.3988                 0.4199
 IR Inten    --      0.8114                 7.6432                 5.7568

                     13                     14                     15
                      A                      A                      A
 Frequencies --    781.2290               827.4576               849.3005
 Red. masses --      1.2364                 1.2217                 4.0003
 Frc consts  --      0.4446                 0.4928                 1.7001
 IR Inten    --     80.7210                11.9024                23.3390

                     16                     17                     18
                      A                      A                      A
 Frequencies --    960.8582               988.3960              1047.6501
 Red. masses --      1.9821                 2.0799                 2.3689
 Frc consts  --      1.0782                 1.1972                 1.5319
 IR Inten    --     61.7446                14.4749                 0.0826

                     19                     20                     21
                      A                      A                      A
 Frequencies --   1066.3820              1086.4545              1133.3868
 Red. masses --      1.7636                 1.5461                 1.2728
 Frc consts  --      1.1816                 1.0753                 0.9633
 IR Inten    --     51.1808                 0.1773                 7.1353

                     22                     23                     24
                      A                      A                      A
 Frequencies --   1145.9560              1167.6574              1180.3968
 Red. masses --      2.3423                 1.5487                 2.1075
 Frc consts  --      1.8123                 1.2441                 1.7301
 IR Inten    --     27.6277                12.9457                27.1627

                     25                     26                     27
                      A                      A                      A
 Frequencies --   1236.1802              1252.8943              1272.0069
 Red. masses --      2.4903                 2.0810                 1.3917
 Frc consts  --      2.2422                 1.9246                 1.3267
 IR Inten    --      2.9609                 1.6411                15.7251

                     28                     29                     30
                      A                      A                      A
 Frequencies --   1309.7502              1346.8916              1359.1351
 Red. masses --      1.1160                 1.3155                 1.4392
 Frc consts  --      1.1280                 1.4061                 1.5664
 IR Inten    --      1.6623                16.7763                11.9183

                     31                     32                     33
                      A                      A                      A
 Frequencies --   1419.6588              1448.9204              1460.0106
 Red. masses --      1.4252                 1.1858                 1.1811
 Frc consts  --      1.6924                 1.4667                 1.4834
 IR Inten    --      1.0569                 0.2333                 3.2721

                     34                     35                     36
                      A                      A                      A
 Frequencies --   1484.2080              1486.0544              1489.8793
 Red. masses --      1.0644                 1.1455                 1.0731
 Frc consts  --      1.3814                 1.4904                 1.4035
 IR Inten    --      6.3217                10.5884                 6.8980

                     37                     38                     39
                      A                      A                      A
 Frequencies --   1497.0011              1504.1223              1516.6588
 Red. masses --      1.0857                 1.0705                 1.0675
 Frc consts  --      1.4335                 1.4269                 1.4468
 IR Inten    --      3.3066                 4.6025                13.9603

                     40                     41                     42
                      A                      A                      A
 Frequencies --   1525.1648              1667.4019              2910.8047
 Red. masses --      1.0775                 1.0836                 1.0705
 Frc consts  --      1.4768                 1.7749                 5.3438
 IR Inten    --      0.3972                15.9383                18.4090

                     43                     44                     45
                      A                      A                      A
 Frequencies --   2923.4842              2932.8980              2940.8144
 Red. masses --      1.0625                 1.0696                 1.0608
 Frc consts  --      5.3504                 5.4209                 5.4052
 IR Inten    --     70.0585                74.7227               130.5174

                     46                     47                     48
                      A                      A                      A
 Frequencies --   3024.2855              3050.7263              3053.0740
 Red. masses --      1.0857                 1.0893                 1.0739
 Frc consts  --      5.8506                 5.9730                 5.8979
 IR Inten    --     13.5194                35.9640                49.3729

                     49                     50                     51
                      A                      A                      A
 Frequencies --   3084.3289              3100.9592              3138.3809
 Red. masses --      1.0707                 1.1009                 1.1016
 Frc consts  --      6.0013                 6.2372                 6.3928
 IR Inten    --     32.4885                31.8143                18.9600

                     52                     53                     54
                      A                      A                      A
 Frequencies --   3337.2670              3507.6545              3522.7614
 Red. masses --      1.0581                 1.0735                 1.0814
 Frc consts  --      6.9432                 7.7819                 7.9072
 IR Inten    --     26.5418                 0.4223                 0.3312

 - Thermochemistry -
 -------------------
 Temperature   298.150 Kelvin.  Pressure   1.00000 Atm.
 Atom     1 has atomic number  6 and mass  12.00000

 Molecular mass:   103.11095 amu.
 Principal axes and moments of inertia in atomic units:
                           1         2         3
     Eigenvalues --   259.164821695.909261869.46679
           X            0.99994  -0.00151   0.01071
           Y            0.00142   0.99996   0.00841
           Z           -0.01072  -0.00840   0.99991
 This molecule is an asymmetric top.
 Rotational symmetry number  1.
 Rotational temperatures (Kelvin)      0.33420     0.05107     0.04633
 Rotational constants (GHZ):           6.96368     1.06417     0.96538
 Zero-point vibrational energy     480640.3 (Joules/Mol)
                                  114.87580 (Kcal/Mol)
 Warning -- explicit consideration of  12 degrees of freedom as
           vibrations may cause significant error
 Vibrational temperatures:    101.15   122.01   189.30   225.19   355.83
          (Kelvin)            363.26   443.87   466.24   483.20   572.90
                              716.70   734.61  1124.01  1190.53  1221.95
                             1382.46  1422.08  1507.33  1534.29  1563.17
                             1630.69  1648.78  1680.00  1698.33  1778.59
                             1802.64  1830.13  1884.44  1937.88  1955.49
                             2042.57  2084.67  2100.63  2135.44  2138.10
                             2143.60  2153.85  2164.10  2182.13  2194.37
                             2399.02  4188.00  4206.24  4219.79  4231.18
                             4351.27  4389.31  4392.69  4437.66  4461.59
                             4515.43  4801.58  5046.73  5068.47

 Zero-point correction=                           0.183066 (Hartree/Particle)
 Thermal correction to Energy=                    0.192260
 Thermal correction to Enthalpy=                  0.193204
 Thermal correction to Gibbs Free Energy=         0.149223
 Sum of electronic and zero-point Energies=           -324.292246
 Sum of electronic and thermal Energies=              -324.283052
 Sum of electronic and thermal Enthalpies=            -324.282108
 Sum of electronic and thermal Free Energies=         -324.326089

                     E (Thermal)             CV                S
                      KCal/Mol        Cal/Mol-Kelvin    Cal/Mol-Kelvin
 Total                  120.645             32.371             92.565
 Electronic               0.000              0.000              0.000
 Translational            0.889              2.981             39.809
 Rotational               0.889              2.981             28.198
 Vibrational            118.867             26.410             24.558
 Vibration     1          0.598              1.968              4.145
 Vibration     2          0.601              1.960              3.777
 Vibration     3          0.612              1.922              2.923
 Vibration     4          0.620              1.895              2.591
 Vibration     5          0.661              1.767              1.750
 Vibration     6          0.664              1.759              1.713
 Vibration     7          0.698              1.658              1.370
 Vibration     8          0.709              1.627              1.290
 Vibration     9          0.717              1.604              1.232
 Vibration    10          0.764              1.474              0.969
 Vibration    11          0.854              1.254              0.663
 Vibration    12          0.866              1.227              0.632

 Optimization completed.
    -- Stationary point found.
 Normal termination of Gaussian 16 at Tue Jun  1 20:37:41 2021.
