 Gaussian 16, Revision A.03,
 Gaussian 16:  ES64L-G16RevA.03 25-Dec-2016

 -----------------------------
 # opt freq b3lyp/6-31g(2df,p)
 -----------------------------

 -------------------
 Title Card Required
 -------------------
 Symbolic Z-matrix:
 Charge =  0 Multiplicity = 1

 SCF Done:  E(RB3LYP) =  -403.103126162     A.U. after   12 cycles
 SCF Done:  E(RB3LYP) =  -403.108540718     A.U. after   10 cycles
 SCF Done:  E(RB3LYP) =  -403.109626897     A.U. after   10 cycles
 SCF Done:  E(RB3LYP) =  -403.109739453     A.U. after    9 cycles
 SCF Done:  E(RB3LYP) =  -403.109759610     A.U. after    9 cycles
 SCF Done:  E(RB3LYP) =  -403.109764625     A.U. after    8 cycles
 SCF Done:  E(RB3LYP) =  -403.109765373     A.U. after    7 cycles
 SCF Done:  E(RB3LYP) =  -403.109765470     A.U. after    6 cycles
 Optimization completed.
    -- Stationary point found.
 Normal termination of Gaussian 16 at Tue Jun  1 16:35:22 2021.

 ----------------------------------------------------------------------
 #N Geom=AllCheck Guess=TCheck SCRF=Check GenChk RB3LYP/6-31G(2df,p) Fr
 eq
 ----------------------------------------------------------------------

 Structure from the checkpoint file:  "CNCCCCNpCpN.chk"
 -------------------
 Title Card Required
 -------------------
 Charge =  0 Multiplicity = 1

                         Standard orientation:
 ---------------------------------------------------------------------
 Center     Atomic      Atomic             Coordinates (Angstroms)
 Number     Number       Type             X           Y           Z
 ---------------------------------------------------------------------
      1          6           0       -4.701811    0.262145   -0.081350
      2          7           0       -3.465672   -0.426161    0.262067
      3          6           0       -2.269680    0.294926   -0.155147
      4          6           0       -1.001182   -0.480332    0.200115
      5          6           0        0.282241    0.258159   -0.194889
      6          6           0        1.542084   -0.523937    0.187058
      7          7           0        2.778868    0.043216   -0.350843
      8          6           0        3.106406    1.347880    0.203104
      9          7           0        3.900852   -0.817512   -0.136677
     10          1           0       -5.559510   -0.355796    0.200809
     11          1           0       -4.798624    0.517116   -1.152899
     12          1           0       -4.767264    1.198995    0.484181
     13          1           0       -3.464082   -1.346063   -0.167921
     14          1           0       -2.264706    1.262799    0.365267
     15          1           0       -2.267284    0.531008   -1.238189
     16          1           0       -1.025921   -1.459497   -0.300050
     17          1           0       -1.006881   -0.685027    1.277558
     18          1           0        0.288606    1.243382    0.286225
     19          1           0        0.299019    0.436607   -1.277084
     20          1           0        1.460241   -1.541105   -0.216005
     21          1           0        1.598648   -0.626131    1.291761
     22          1           0        2.332150    2.073182   -0.059083
     23          1           0        4.056086    1.676998   -0.221225
     24          1           0        3.205460    1.334050    1.306313
     25          1           0        3.798507   -1.606372   -0.769627
     26          1           0        3.868878   -1.203994    0.814792
 ---------------------------------------------------------------------

 SCF Done:  E(RB3LYP) =  -403.109765470     A.U. after    1 cycles

 The electronic state is 1-A.
 Alpha  occ. eigenvalues --  -14.33832 -14.32950 -14.30868 -10.20229 -10.20030
 Alpha  occ. eigenvalues --  -10.19636 -10.19084 -10.17994 -10.17954  -0.96310
 Alpha  occ. eigenvalues --   -0.89628  -0.80445  -0.76995  -0.71633  -0.66740
 Alpha  occ. eigenvalues --   -0.62788  -0.59376  -0.57632  -0.49677  -0.48857
 Alpha  occ. eigenvalues --   -0.48222  -0.46026  -0.44433  -0.43325  -0.42487
 Alpha  occ. eigenvalues --   -0.40794  -0.39012  -0.37557  -0.36891  -0.36580
 Alpha  occ. eigenvalues --   -0.34658  -0.34064  -0.33106  -0.32559  -0.24839
 Alpha  occ. eigenvalues --   -0.21796  -0.21497
 Alpha virt. eigenvalues --    0.07913   0.08588   0.10017   0.10981   0.12705
 Alpha virt. eigenvalues --    0.13110   0.13655   0.15031   0.16125   0.16604
 Alpha virt. eigenvalues --    0.16920   0.17682   0.17873   0.18670   0.19635

 Mulliken charges:
               1
     1  C   -0.308317
     2  N   -0.279836
     3  C   -0.119901
     4  C   -0.194601
     5  C   -0.200548
     6  C   -0.114261
     7  N   -0.068885
     8  C   -0.290328
     9  N   -0.465126
    10  H    0.115244
    11  H    0.090452
    12  H    0.120349
    13  H    0.211493
    14  H    0.099586
    15  H    0.072025
    16  H    0.087502
    17  H    0.107999
    18  H    0.100890
    19  H    0.107111
    20  H    0.088285
    21  H    0.067296
    22  H    0.117210
    23  H    0.130741
    24  H    0.082534
    25  H    0.236570
    26  H    0.206516
 Sum of Mulliken charges =  -0.00000

 Dipole moment (field-independent basis, Debye):
    X=             -1.0830    Y=             -0.8882    Z=             -0.0391  Tot=              1.4011
 Quadrupole moment (field-independent basis, Debye-Ang):
   XX=            -64.9712   YY=            -54.1278   ZZ=            -60.2910
   XY=             -2.0828   XZ=              5.6278   YZ=              1.7251

  Exact polarizability: 115.178  -1.881  85.620   1.272   0.118  76.280
 Approx polarizability: 126.531  -2.278 124.978   0.240   0.282 119.421

                      1                      2                      3
                      A                      A                      A
 Frequencies --     46.4309                51.8128                78.5934
 Red. masses --      2.7021                 2.0952                 3.5003
 Frc consts  --      0.0034                 0.0033                 0.0127
 IR Inten    --      0.8478                 1.7982                 0.5803

                      4                      5                      6
                      A                      A                      A
 Frequencies --    110.5137               131.6110               153.9853
 Red. masses --      2.4180                 1.7969                 2.0703
 Frc consts  --      0.0174                 0.0183                 0.0289
 IR Inten    --      0.5222                 0.2764                 1.2039

                      7                      8                      9
                      A                      A                      A
 Frequencies --    210.5242               243.0443               251.9793
 Red. masses --      3.1255                 1.8306                 1.1704
 Frc consts  --      0.0816                 0.0637                 0.0438
 IR Inten    --      1.6402                 1.6411                 1.2275

                     10                     11                     12
                      A                      A                      A
 Frequencies --    263.6468               308.4142               358.1964
 Red. masses --      1.7202                 1.1636                 3.0398
 Frc consts  --      0.0704                 0.0652                 0.2298
 IR Inten    --      2.0446                32.1622                 2.4230

                     13                     14                     15
                      A                      A                      A
 Frequencies --    391.5380               454.9490               501.5633
 Red. masses --      2.0367                 2.6424                 2.7899
 Frc consts  --      0.1840                 0.3222                 0.4135
 IR Inten    --      1.2198                 2.0994                 8.0732

                     16                     17                     18
                      A                      A                      A
 Frequencies --    522.9174               749.8543               780.0727
 Red. masses --      3.0694                 1.0845                 1.2439
 Frc consts  --      0.4945                 0.3593                 0.4460
 IR Inten    --      7.5844                 1.5952                82.8197

                     19                     20                     21
                      A                      A                      A
 Frequencies --    811.8525               844.9107               940.1618
 Red. masses --      1.1972                 4.5362                 1.3331
 Frc consts  --      0.4649                 1.9080                 0.6943
 IR Inten    --      5.3277                24.2222                 5.1215

                     22                     23                     24
                      A                      A                      A
 Frequencies --    962.3589               978.8151              1024.9576
 Red. masses --      1.9950                 1.9119                 3.1915
 Frc consts  --      1.0886                 1.0792                 1.9754
 IR Inten    --     53.1137                 8.1985                19.0658

                     25                     26                     27
                      A                      A                      A
 Frequencies --   1052.8730              1068.8339              1074.2613
 Red. masses --      2.7146                 2.1199                 1.9572
 Frc consts  --      1.7730                 1.4269                 1.3308
 IR Inten    --     11.8889                11.8221                24.0468

                     28                     29                     30
                      A                      A                      A
 Frequencies --   1109.5870              1133.0723              1148.1728
 Red. masses --      1.4378                 1.2656                 2.6721
 Frc consts  --      1.0430                 0.9573                 2.0755
 IR Inten    --      3.9192                 5.9329                37.5112

                     31                     32                     33
                      A                      A                      A
 Frequencies --   1169.9680              1180.8279              1221.3859
 Red. masses --      1.5452                 2.0157                 1.8811
 Frc consts  --      1.2462                 1.6560                 1.6533
 IR Inten    --     12.9503                18.7602                 3.6708

                     34                     35                     36
                      A                      A                      A
 Frequencies --   1235.6583              1249.8013              1290.7414
 Red. masses --      1.9513                 1.8552                 1.5229
 Frc consts  --      1.7554                 1.7074                 1.4949
 IR Inten    --      4.4077                 7.0823                 1.9387

                     37                     38                     39
                      A                      A                      A
 Frequencies --   1297.4795              1319.2581              1321.2493
 Red. masses --      1.2389                 1.0800                 1.1318
 Frc consts  --      1.2288                 1.1074                 1.1641
 IR Inten    --      0.5953                 0.7053                 6.5262

                     40                     41                     42
                      A                      A                      A
 Frequencies --   1356.0631              1363.3006              1408.7126
 Red. masses --      1.3186                 1.4275                 1.4185
 Frc consts  --      1.4286                 1.5632                 1.6585
 IR Inten    --      7.8023                 7.3591                25.7531

                     43                     44                     45
                      A                      A                      A
 Frequencies --   1412.3068              1448.9057              1459.8590
 Red. masses --      1.5182                 1.1858                 1.1804
 Frc consts  --      1.7841                 1.4667                 1.4822
 IR Inten    --      6.4005                 2.4889                 1.5194

                     46                     47                     48
                      A                      A                      A
 Frequencies --   1483.2724              1484.5184              1488.4850
 Red. masses --      1.0654                 1.1475                 1.0752
 Frc consts  --      1.3810                 1.4900                 1.4035
 IR Inten    --      6.6106                16.7135                 2.6776

                     49                     50                     51
                      A                      A                      A
 Frequencies --   1490.8821              1494.1058              1502.0854
 Red. masses --      1.0858                 1.0903                 1.0555
 Frc consts  --      1.4219                 1.4341                 1.4031
 IR Inten    --      4.3158                 2.4645                 3.9191

                     52                     53                     54
                      A                      A                      A
 Frequencies --   1508.9308              1516.9454              1524.8414
 Red. masses --      1.0935                 1.0672                 1.0849
 Frc consts  --      1.4669                 1.4468                 1.4862
 IR Inten    --      2.6033                14.4055                 0.7026

                     55                     56                     57
                      A                      A                      A
 Frequencies --   1666.8232              2880.4376              2900.5304
 Red. masses --      1.0837                 1.0720                 1.0729
 Frc consts  --      1.7739                 5.2404                 5.3183
 IR Inten    --     15.8536                55.8378                65.4658

                     58                     59                     60
                      A                      A                      A
 Frequencies --   2919.1171              2935.2343              3001.5617
 Red. masses --      1.0619                 1.0602                 1.0672
 Frc consts  --      5.3315                 5.3819                 5.6646
 IR Inten    --     86.6377               104.3846                 9.6106

                     61                     62                     63
                      A                      A                      A
 Frequencies --   3020.5867              3028.0913              3035.6563
 Red. masses --      1.0779                 1.0671                 1.0812
 Frc consts  --      5.7944                 5.7648                 5.8702
 IR Inten    --     20.3433                18.8610                41.9211

                     64                     65                     66
                      A                      A                      A
 Frequencies --   3051.1025              3052.9454              3077.0869
 Red. masses --      1.0731                 1.0954                 1.1011
 Frc consts  --      5.8859                 6.0151                 6.1425
 IR Inten    --     41.2564                 6.6686                70.5027

                     67                     68                     69
                      A                      A                      A
 Frequencies --   3087.3714              3099.8674              3139.1482
 Red. masses --      1.0721                 1.1007                 1.1022
 Frc consts  --      6.0210                 6.2317                 6.3992
 IR Inten    --     33.7872                32.2945                20.3018

                     70                     71                     72
                      A                      A                      A
 Frequencies --   3332.9067              3507.3693              3522.1655
 Red. masses --      1.0582                 1.0735                 1.0812
 Frc consts  --      6.9260                 7.7805                 7.9027
 IR Inten    --     28.2325                 0.4533                 0.3851

 - Thermochemistry -
 -------------------
 Temperature   298.150 Kelvin.  Pressure   1.00000 Atm.
 Atom     1 has atomic number  6 and mass  12.00000

 Molecular mass:   131.14225 amu.
 Principal axes and moments of inertia in atomic units:
                           1         2         3
     Eigenvalues --   302.970764139.338424323.37895
           X            0.99997  -0.00105   0.00749
           Y            0.00100   0.99998   0.00638
           Z           -0.00750  -0.00637   0.99995
 This molecule is an asymmetric top.
 Rotational symmetry number  1.
 Rotational temperatures (Kelvin)      0.28588     0.02092     0.02003
 Rotational constants (GHZ):           5.95682     0.43600     0.41744
 Zero-point vibrational energy     629517.4 (Joules/Mol)
                                  150.45827 (Kcal/Mol)
 Warning -- explicit consideration of  16 degrees of freedom as
           vibrations may cause significant error
 Vibrational temperatures:     66.80    74.55   113.08   159.00   189.36
          (Kelvin)            221.55   302.90   349.69   362.54   379.33
                              443.74   515.36   563.34   654.57   721.64
                              752.36  1078.87  1122.35  1168.07  1215.64
                             1352.68  1384.62  1408.30  1474.69  1514.85
                             1537.81  1545.62  1596.45  1630.24  1651.96
                             1683.32  1698.95  1757.30  1777.84  1798.19
                             1857.09  1866.78  1898.12  1900.98  1951.07
                             1961.49  2026.82  2031.99  2084.65  2100.41
                             2134.10  2135.89  2141.60  2145.05  2149.68
                             2161.17  2171.01  2182.55  2193.91  2398.19
                             4144.31  4173.22  4199.96  4223.15  4318.58
                             4345.95  4356.75  4367.63  4389.86  4392.51
                             4427.24  4442.04  4460.02  4516.53  4795.31
                             5046.32  5067.61

 Zero-point correction=                           0.239771 (Hartree/Particle)
 Thermal correction to Energy=                    0.251691
 Thermal correction to Enthalpy=                  0.252636
 Thermal correction to Gibbs Free Energy=         0.201362
 Sum of electronic and zero-point Energies=           -402.869995
 Sum of electronic and thermal Energies=              -402.858074
 Sum of electronic and thermal Enthalpies=            -402.857130
 Sum of electronic and thermal Free Energies=         -402.908403

                     E (Thermal)             CV                S
                      KCal/Mol        Cal/Mol-Kelvin    Cal/Mol-Kelvin
 Total                  157.939             42.104            107.914
 Electronic               0.000              0.000              0.000
 Translational            0.889              2.981             40.526
 Rotational               0.889              2.981             30.073
 Vibrational            156.161             36.142             37.315
 Vibration     1          0.595              1.979              4.964
 Vibration     2          0.596              1.977              4.747
 Vibration     3          0.600              1.964              3.926
 Vibration     4          0.606              1.941              3.260
 Vibration     5          0.612              1.922              2.922
 Vibration     6          0.620              1.898              2.622
 Vibration     7          0.643              1.825              2.039
 Vibration     8          0.659              1.774              1.780
 Vibration     9          0.664              1.759              1.717
 Vibration    10          0.670              1.740              1.637
 Vibration    11          0.698              1.658              1.371
 Vibration    12          0.733              1.558              1.130
 Vibration    13          0.759              1.488              0.994
 Vibration    14          0.813              1.350              0.781
 Vibration    15          0.857              1.247              0.654
 Vibration    16          0.878              1.199              0.603

 Optimization completed.
    -- Stationary point found.
 Normal termination of Gaussian 16 at Tue Jun  1 17:08:09 2021.
