 Gaussian 16, Revision A.03,
 Gaussian 16:  ES64L-G16RevA.03 25-Dec-2016

 -----------------------------
 # opt freq b3lyp/6-31g(2df,p)
 -----------------------------

 -------------------
 Title Card Required
 -------------------
 Symbolic Z-matrix:
 Charge =  0 Multiplicity = 1

 SCF Done:  E(RB3LYP) =  -442.447859652     A.U. after   12 cycles
 SCF Done:  E(RB3LYP) =  -442.455914661     A.U. after   10 cycles
 SCF Done:  E(RB3LYP) =  -442.457012013     A.U. after   10 cycles
 SCF Done:  E(RB3LYP) =  -442.457290037     A.U. after    9 cycles
 SCF Done:  E(RB3LYP) =  -442.457399221     A.U. after    9 cycles
 SCF Done:  E(RB3LYP) =  -442.457429447     A.U. after    9 cycles
 SCF Done:  E(RB3LYP) =  -442.457451049     A.U. after    9 cycles
 SCF Done:  E(RB3LYP) =  -442.457454799     A.U. after    8 cycles
 SCF Done:  E(RB3LYP) =  -442.457456017     A.U. after    7 cycles
 SCF Done:  E(RB3LYP) =  -442.457456236     A.U. after    7 cycles
 SCF Done:  E(RB3LYP) =  -442.457456401     A.U. after    7 cycles
 SCF Done:  E(RB3LYP) =  -442.457456435     A.U. after    6 cycles
 SCF Done:  E(RB3LYP) =  -442.457456459     A.U. after    5 cycles
 Optimization completed.
    -- Stationary point found.
 Normal termination of Gaussian 16 at Tue Jun  1 16:30:07 2021.

 ----------------------------------------------------------------------
 #N Geom=AllCheck Guess=TCheck SCRF=Check GenChk RB3LYP/6-31G(2df,p) Fr
 eq
 ----------------------------------------------------------------------

 Structure from the checkpoint file:  "CNCCCCpCpNCN.chk"
 -------------------
 Title Card Required
 -------------------
 Charge =  0 Multiplicity = 1

                         Standard orientation:
 ---------------------------------------------------------------------
 Center     Atomic      Atomic             Coordinates (Angstroms)
 Number     Number       Type             X           Y           Z
 ---------------------------------------------------------------------
      1          6           0       -5.049502   -0.558885    0.037738
      2          7           0       -3.843552    0.162389   -0.342843
      3          6           0       -2.621802   -0.450694    0.163422
      4          6           0       -1.387500    0.360506   -0.232239
      5          6           0       -0.084199   -0.269376    0.268401
      6          6           0        1.201649    0.425434   -0.208331
      7          6           0        1.300786    1.868956    0.301913
      8          7           0        2.345818   -0.359803    0.264913
      9          6           0        3.603922   -0.126031   -0.422745
     10          7           0        4.568692   -1.097528    0.082079
     11          1           0       -5.931603   -0.018089   -0.318110
     12          1           0       -5.159863   -0.719634    1.126207
     13          1           0       -5.050444   -1.545928   -0.439337
     14          1           0       -3.901441    1.116346    0.000247
     15          1           0       -2.551147   -1.459375   -0.267014
     16          1           0       -2.636198   -0.589176    1.263230
     17          1           0       -1.491265    1.377499    0.168280
     18          1           0       -1.368427    0.457991   -1.324587
     19          1           0       -0.050422   -1.315399   -0.068962
     20          1           0       -0.075909   -0.301018    1.365885
     21          1           0        1.173695    0.457181   -1.316102
     22          1           0        1.279808    1.884411    1.396641
     23          1           0        0.475375    2.479183   -0.075178
     24          1           0        2.229484    2.345626   -0.023531
     25          1           0        2.143373   -1.351477    0.176251
     26          1           0        3.896741    0.924470   -0.262042
     27          1           0        3.533841   -0.270250   -1.518566
     28          1           0        4.761375   -0.896614    1.059250
     29          1           0        5.446189   -1.010614   -0.420555
 ---------------------------------------------------------------------

 SCF Done:  E(RB3LYP) =  -442.457456459     A.U. after    1 cycles

 The electronic state is 1-A.
 Alpha  occ. eigenvalues --  -14.30664 -14.30499 -14.30055 -10.22207 -10.20504
 Alpha  occ. eigenvalues --  -10.19798 -10.19470 -10.17593 -10.17569 -10.16615
 Alpha  occ. eigenvalues --   -0.91499  -0.89420  -0.85067  -0.77960  -0.72802
 Alpha  occ. eigenvalues --   -0.68195  -0.64472  -0.61631  -0.58814  -0.56302
 Alpha  occ. eigenvalues --   -0.49518  -0.48983  -0.47424  -0.46579  -0.44204
 Alpha  occ. eigenvalues --   -0.43266  -0.41477  -0.41120  -0.40178  -0.39211
 Alpha  occ. eigenvalues --   -0.37643  -0.36713  -0.36097  -0.34992  -0.34198
 Alpha  occ. eigenvalues --   -0.33421  -0.32030  -0.31083  -0.23778  -0.21644
 Alpha  occ. eigenvalues --   -0.21550
 Alpha virt. eigenvalues --    0.08619   0.08917   0.09413   0.10972   0.12015
 Alpha virt. eigenvalues --    0.12798   0.13166   0.14767   0.14882   0.16120
 Alpha virt. eigenvalues --    0.16188   0.16881   0.17653   0.18587   0.18967

 Mulliken charges:
               1
     1  C   -0.307949
     2  N   -0.280258
     3  C   -0.119521
     4  C   -0.204772
     5  C   -0.197652
     6  C    0.065972
     7  C   -0.375700
     8  N   -0.292776
     9  C   -0.087011
    10  N   -0.514865
    11  H    0.114659
    12  H    0.089898
    13  H    0.120007
    14  H    0.211263
    15  H    0.098906
    16  H    0.071396
    17  H    0.092442
    18  H    0.106392
    19  H    0.087387
    20  H    0.102905
    21  H    0.050028
    22  H    0.116023
    23  H    0.112537
    24  H    0.111597
    25  H    0.213721
    26  H    0.085863
    27  H    0.076369
    28  H    0.228109
    29  H    0.225029
 Sum of Mulliken charges =  -0.00000

 Dipole moment (field-independent basis, Debye):
    X=              0.3847    Y=              0.8323    Z=              0.3070  Tot=              0.9669
 Quadrupole moment (field-independent basis, Debye-Ang):
   XX=            -57.2530   YY=            -65.9335   ZZ=            -66.7349
   XY=              1.8934   XZ=             -4.0934   YZ=              0.8491

  Exact polarizability: 132.288  -1.751  92.401  -1.241  -0.926  85.276
 Approx polarizability: 143.761  -3.083 135.807  -0.728  -2.017 133.047

                      1                      2                      3
                      A                      A                      A
 Frequencies --     43.9731                48.1686                63.7288
 Red. masses --      2.6636                 1.9528                 2.2427
 Frc consts  --      0.0030                 0.0027                 0.0054
 IR Inten    --      0.1577                 1.9440                 2.7351

                      4                      5                      6
                      A                      A                      A
 Frequencies --     80.3968                99.7959               133.5216
 Red. masses --      2.8029                 2.7229                 2.0001
 Frc consts  --      0.0107                 0.0160                 0.0210
 IR Inten    --      0.2819                 3.4696                 0.6288

                      7                      8                      9
                      A                      A                      A
 Frequencies --    137.1736               177.9228               231.1821
 Red. masses --      1.9232                 3.0414                 1.4433
 Frc consts  --      0.0213                 0.0567                 0.0454
 IR Inten    --      1.2477                 0.5832                 8.2494

                     10                     11                     12
                      A                      A                      A
 Frequencies --    244.6942               251.9809               286.2949
 Red. masses --      1.8791                 1.1756                 1.3772
 Frc consts  --      0.0663                 0.0440                 0.0665
 IR Inten    --      0.4880                 0.6058                29.0844

                     13                     14                     15
                      A                      A                      A
 Frequencies --    294.8488               352.2989               411.9743
 Red. masses --      3.2114                 2.6834                 2.7864
 Frc consts  --      0.1645                 0.1962                 0.2786
 IR Inten    --      2.9945                 8.9392                 5.6752

                     16                     17                     18
                      A                      A                      A
 Frequencies --    470.0002               504.6374               565.0113
 Red. masses --      2.6632                 2.6813                 2.7851
 Frc consts  --      0.3466                 0.4023                 0.5239
 IR Inten    --      2.9993                 0.9055                 3.6379

                     19                     20                     21
                      A                      A                      A
 Frequencies --    755.9855               778.9617               800.1750
 Red. masses --      1.1390                 1.2641                 1.3520
 Frc consts  --      0.3835                 0.4519                 0.5100
 IR Inten    --      2.4293                91.1743                38.2913

                     22                     23                     24
                      A                      A                      A
 Frequencies --    843.9184               868.7746               880.8474
 Red. masses --      1.7587                 1.2624                 1.4608
 Frc consts  --      0.7380                 0.5614                 0.6678
 IR Inten    --     25.6338               101.6739                33.5754

                     25                     26                     27
                      A                      A                      A
 Frequencies --    940.6128               980.9615               995.6640
 Red. masses --      1.8325                 1.7753                 1.4154
 Frc consts  --      0.9552                 1.0065                 0.8267
 IR Inten    --      4.0276                 2.9095                 2.4878

                     28                     29                     30
                      A                      A                      A
 Frequencies --   1017.2688              1046.9040              1053.3640
 Red. masses --      1.7371                 2.8428                 2.2894
 Frc consts  --      1.0591                 1.8357                 1.4967
 IR Inten    --      5.2965                 4.6263                 6.4613

                     31                     32                     33
                      A                      A                      A
 Frequencies --   1067.8794              1111.0704              1119.1412
 Red. masses --      2.5312                 1.4068                 1.8365
 Frc consts  --      1.7006                 1.0232                 1.3552
 IR Inten    --      0.7121                 1.9681                17.3535

                     34                     35                     36
                      A                      A                      A
 Frequencies --   1143.9009              1158.6998              1180.5127
 Red. masses --      2.2663                 3.1944                 2.0882
 Frc consts  --      1.7472                 2.5269                 1.7146
 IR Inten    --      8.7335                68.8292                 2.6785

                     37                     38                     39
                      A                      A                      A
 Frequencies --   1196.6823              1200.6133              1220.8837
 Red. masses --      2.0581                 1.8117                 1.3528
 Frc consts  --      1.7365                 1.5387                 1.1880
 IR Inten    --     33.8398                35.1652                 5.8998

                     40                     41                     42
                      A                      A                      A
 Frequencies --   1244.7441              1288.0545              1305.9577
 Red. masses --      1.4623                 1.3851                 1.2257
 Frc consts  --      1.3349                 1.3540                 1.2317
 IR Inten    --     12.0272                 0.2581                 1.1313

                     43                     44                     45
                      A                      A                      A
 Frequencies --   1318.5500              1322.6110              1350.1733
 Red. masses --      1.2511                 1.0817                 1.2768
 Frc consts  --      1.2815                 1.1149                 1.3713
 IR Inten    --      1.7590                 1.2302                10.8038

                     46                     47                     48
                      A                      A                      A
 Frequencies --   1381.9961              1386.2121              1408.1450
 Red. masses --      1.3849                 1.3296                 1.3006
 Frc consts  --      1.5584                 1.5053                 1.5194
 IR Inten    --      7.8907                29.4444                23.5785

                     49                     50                     51
                      A                      A                      A
 Frequencies --   1410.4958              1434.3368              1459.6061
 Red. masses --      1.5308                 1.3281                 1.1793
 Frc consts  --      1.7944                 1.6099                 1.4803
 IR Inten    --      5.2661                 6.7045                 2.1192

                     52                     53                     54
                      A                      A                      A
 Frequencies --   1481.3930              1484.3161              1489.7287
 Red. masses --      1.0835                 1.1479                 1.0928
 Frc consts  --      1.4010                 1.4901                 1.4289
 IR Inten    --      6.8838                20.4917                 7.4071

                     55                     56                     57
                      A                      A                      A
 Frequencies --   1491.5141              1499.1560              1503.9125
 Red. masses --      1.1077                 1.0891                 1.1853
 Frc consts  --      1.4519                 1.4422                 1.5795
 IR Inten    --      3.8809                 0.6878                37.7401

                     58                     59                     60
                      A                      A                      A
 Frequencies --   1505.7792              1516.5255              1524.4875
 Red. masses --      1.0977                 1.0676                 1.0831
 Frc consts  --      1.4664                 1.4467                 1.4831
 IR Inten    --     21.3771                11.7827                 0.5933

                     61                     62                     63
                      A                      A                      A
 Frequencies --   1541.0145              1641.4587              2890.0466
 Red. masses --      1.0875                 1.0995                 1.0801
 Frc consts  --      1.5216                 1.7454                 5.3154
 IR Inten    --      1.3987                29.9948                44.3162

                     64                     65                     66
                      A                      A                      A
 Frequencies --   2899.4094              2910.0587              2934.3371
 Red. masses --      1.0729                 1.0713                 1.0603
 Frc consts  --      5.3139                 5.3452                 5.3790
 IR Inten    --     63.1659               111.6766               105.5718

                     67                     68                     69
                      A                      A                      A
 Frequencies --   2962.7657              2999.9152              3014.6721
 Red. masses --      1.0867                 1.0624                 1.0745
 Frc consts  --      5.6203                 5.6330                 5.7535
 IR Inten    --     68.1978                19.6924                 4.8006

                     70                     71                     72
                      A                      A                      A
 Frequencies --   3024.3962              3040.2726              3040.9674
 Red. masses --      1.0691                 1.0457                 1.0864
 Frc consts  --      5.7619                 5.6948                 5.9192
 IR Inten    --     52.9774                14.7292                 9.8617

                     73                     74                     75
                      A                      A                      A
 Frequencies --   3050.6261              3069.3678              3099.3439
 Red. masses --      1.0730                 1.1029                 1.1007
 Frc consts  --      5.8833                 6.1218                 6.2296
 IR Inten    --     41.8510                69.3368                32.8196

                     76                     77                     78
                      A                      A                      A
 Frequencies --   3110.8721              3114.9958              3492.9322
 Red. masses --      1.1006                 1.1007                 1.0493
 Frc consts  --      6.2753                 6.2926                 7.5431
 IR Inten    --     33.4706                33.2396                 0.3001

                     79                     80                     81
                      A                      A                      A
 Frequencies --   3506.5258              3507.5017              3578.6917
 Red. masses --      1.0731                 1.0735                 1.0922
 Frc consts  --      7.7739                 7.7810                 8.2416
 IR Inten    --      0.1780                 0.4767                 0.3060

 - Thermochemistry -
 -------------------
 Temperature   298.150 Kelvin.  Pressure   1.00000 Atm.
 Atom     1 has atomic number  6 and mass  12.00000

 Molecular mass:   145.15790 amu.
 Principal axes and moments of inertia in atomic units:
                           1         2         3
     Eigenvalues --   447.597575066.011345351.54100
           X            0.99997   0.00712  -0.00435
           Y           -0.00712   0.99997  -0.00019
           Z            0.00435   0.00022   0.99999
 This molecule is an asymmetric top.
 Rotational symmetry number  1.
 Warning -- assumption of classical behavior for rotation
           may cause significant error
 Rotational temperatures (Kelvin)      0.19351     0.01710     0.01618
 Rotational constants (GHZ):           4.03206     0.35624     0.33724
 Zero-point vibrational energy     705786.5 (Joules/Mol)
                                  168.68703 (Kcal/Mol)
 Warning -- explicit consideration of  18 degrees of freedom as
           vibrations may cause significant error
 Vibrational temperatures:     63.27    69.30    91.69   115.67   143.58
          (Kelvin)            192.11   197.36   255.99   332.62   352.06
                              362.54   411.91   424.22   506.88   592.74
                              676.23   726.06   812.93  1087.69  1120.75
                             1151.27  1214.21  1249.97  1267.34  1353.33
                             1411.38  1432.54  1463.62  1506.26  1515.56
                             1536.44  1598.58  1610.19  1645.82  1667.11
                             1698.49  1721.76  1727.41  1756.58  1790.91
                             1853.22  1878.98  1897.10  1902.94  1942.60
                             1988.38  1994.45  2026.01  2029.39  2063.69
                             2100.05  2131.39  2135.60  2143.39  2145.96
                             2156.95  2163.79  2166.48  2181.94  2193.40
                             2217.18  2361.69  4158.13  4171.60  4186.93
                             4221.86  4262.76  4316.21  4337.44  4351.43
                             4374.27  4375.27  4389.17  4416.14  4459.26
                             4475.85  4481.78  5025.55  5045.11  5046.51
                             5148.94

 Zero-point correction=                           0.268820 (Hartree/Particle)
 Thermal correction to Energy=                    0.282250
 Thermal correction to Enthalpy=                  0.283194
 Thermal correction to Gibbs Free Energy=         0.227955
 Sum of electronic and zero-point Energies=           -442.188637
 Sum of electronic and thermal Energies=              -442.175206
 Sum of electronic and thermal Enthalpies=            -442.174262
 Sum of electronic and thermal Free Energies=         -442.229501

                     E (Thermal)             CV                S
                      KCal/Mol        Cal/Mol-Kelvin    Cal/Mol-Kelvin
 Total                  177.115             47.263            116.260
 Electronic               0.000              0.000              0.000
 Translational            0.889              2.981             40.829
 Rotational               0.889              2.981             30.874
 Vibrational            175.337             41.302             44.558
 Vibration     1          0.595              1.980              5.072
 Vibration     2          0.595              1.978              4.891
 Vibration     3          0.597              1.972              4.338
 Vibration     4          0.600              1.962              3.881
 Vibration     5          0.604              1.949              3.458
 Vibration     6          0.613              1.920              2.895
 Vibration     7          0.614              1.916              2.843
 Vibration     8          0.628              1.869              2.350
 Vibration     9          0.653              1.793              1.870
 Vibration    10          0.660              1.772              1.768
 Vibration    11          0.664              1.759              1.717
 Vibration    12          0.684              1.699              1.496
 Vibration    13          0.689              1.683              1.446
 Vibration    14          0.729              1.571              1.156
 Vibration    15          0.776              1.444              0.920
 Vibration    16          0.827              1.317              0.738
 Vibration    17          0.860              1.240              0.647
 Vibration    18          0.921              1.107              0.514

                           ! Non-Optimized Parameters !
 Normal termination of Gaussian 16 at Tue Jun  1 17:13:16 2021.
