 Gaussian 16, Revision A.03,
 Gaussian 16:  ES64L-G16RevA.03 25-Dec-2016

 -----------------------------
 # opt freq b3lyp/6-31g(2df,p)
 -----------------------------

 -------------------
 Title Card Required
 -------------------
 Symbolic Z-matrix:
 Charge =  0 Multiplicity = 1

 SCF Done:  E(RB3LYP) =  -527.358748794     A.U. after   14 cycles
 SCF Done:  E(RB3LYP) =  -527.368953209     A.U. after   13 cycles
 SCF Done:  E(RB3LYP) =  -527.371684318     A.U. after   14 cycles
 SCF Done:  E(RB3LYP) =  -527.372943197     A.U. after   14 cycles
 SCF Done:  E(RB3LYP) =  -527.373639479     A.U. after   14 cycles
 SCF Done:  E(RB3LYP) =  -527.374227828     A.U. after   14 cycles
 SCF Done:  E(RB3LYP) =  -527.376370871     A.U. after   16 cycles
 SCF Done:  E(RB3LYP) =  -527.378275596     A.U. after   14 cycles
 SCF Done:  E(RB3LYP) =  -527.380875348     A.U. after   13 cycles
 SCF Done:  E(RB3LYP) =  -527.381832183     A.U. after   12 cycles
 SCF Done:  E(RB3LYP) =  -527.382050874     A.U. after   13 cycles
 SCF Done:  E(RB3LYP) =  -527.382230792     A.U. after   13 cycles
 SCF Done:  E(RB3LYP) =  -527.382285838     A.U. after   11 cycles
 SCF Done:  E(RB3LYP) =  -527.382307780     A.U. after   11 cycles
 SCF Done:  E(RB3LYP) =  -527.382311299     A.U. after   10 cycles
 SCF Done:  E(RB3LYP) =  -527.382311830     A.U. after    8 cycles
 SCF Done:  E(RB3LYP) =  -527.382311894     A.U. after    7 cycles
 Optimization completed.
    -- Stationary point found.
 Normal termination of Gaussian 16 at Tue Jun  1 08:39:28 2021.

 ----------------------------------------------------------------------
 #N Geom=AllCheck Guess=TCheck SCRF=Check GenChk RB3LYP/6-31G(2df,p) Fr
 eq
 ----------------------------------------------------------------------

 Structure from the checkpoint file:  "CNCCCpdNpCNNNdN.chk"
 -------------------
 Title Card Required
 -------------------
 Charge =  0 Multiplicity = 1

                         Standard orientation:
 ---------------------------------------------------------------------
 Center     Atomic      Atomic             Coordinates (Angstroms)
 Number     Number       Type             X           Y           Z
 ---------------------------------------------------------------------
      1          6           0       -5.278622   -0.299267    0.115142
      2          7           0       -3.935233   -0.855863    0.019710
      3          6           0       -2.892721    0.160571    0.008258
      4          6           0       -1.514255   -0.488111   -0.094124
      5          6           0       -0.332992    0.457341   -0.028922
      6          7           0       -0.361715    1.728510   -0.029263
      7          6           0        1.020088   -0.222896    0.074008
      8          7           0        2.100835    0.683913   -0.284741
      9          7           0        3.325092    0.390992    0.295408
     10          7           0        4.141103   -0.393619   -0.435971
     11          7           0        5.012693   -0.959971    0.265118
     12          1           0       -6.014255   -1.106577    0.059554
     13          1           0       -5.519358    0.442120   -0.667947
     14          1           0       -5.399995    0.195533    1.085445
     15          1           0       -3.864101   -1.417649   -0.823173
     16          1           0       -2.963897    0.724464    0.948003
     17          1           0       -3.023209    0.897852   -0.808140
     18          1           0       -1.436762   -1.052262   -1.035541
     19          1           0       -1.413077   -1.239901    0.699274
     20          1           0       -1.312434    2.094860   -0.082575
     21          1           0        1.043267   -1.112395   -0.569005
     22          1           0        1.116450   -0.596773    1.111849
     23          1           0        1.829455    1.639731   -0.079941
     24          1           0        3.363926    0.196711    1.302463
     25          1           0        5.605570   -1.469279   -0.398265
 ---------------------------------------------------------------------

 SCF Done:  E(RB3LYP) =  -527.382311894     A.U. after    1 cycles

 The electronic state is 1-A.
 Alpha  occ. eigenvalues --  -14.39807 -14.38638 -14.34665 -14.33432 -14.32532
 Alpha  occ. eigenvalues --  -14.32187 -10.24711 -10.22165 -10.22126 -10.20851
 Alpha  occ. eigenvalues --  -10.20505  -1.06464  -0.96089  -0.92053  -0.90846
 Alpha  occ. eigenvalues --   -0.81242  -0.77393  -0.71598  -0.67034  -0.63142
 Alpha  occ. eigenvalues --   -0.61996  -0.56718  -0.54810  -0.50258  -0.49567
 Alpha  occ. eigenvalues --   -0.48445  -0.47607  -0.46791  -0.43617  -0.43039
 Alpha  occ. eigenvalues --   -0.41458  -0.40808  -0.39881  -0.39027  -0.37724
 Alpha  occ. eigenvalues --   -0.36728  -0.35720  -0.31251  -0.27856  -0.24811
 Alpha  occ. eigenvalues --   -0.23886  -0.23420  -0.23275
 Alpha virt. eigenvalues --   -0.00924  -0.00531   0.06960   0.08218   0.09368
 Alpha virt. eigenvalues --    0.10582   0.11585   0.12323   0.13245   0.14247
 Alpha virt. eigenvalues --    0.15837   0.16155   0.16399   0.17514   0.17656

 Mulliken charges:
               1
     1  C   -0.312558
     2  N   -0.282492
     3  C   -0.151467
     4  C   -0.280437
     5  C    0.309642
     6  N   -0.478037
     7  C   -0.184890
     8  N   -0.252108
     9  N   -0.174466
    10  N   -0.018800
    11  N   -0.359739
    12  H    0.121894
    13  H    0.095953
    14  H    0.124955
    15  H    0.216819
    16  H    0.112920
    17  H    0.084766
    18  H    0.122645
    19  H    0.132961
    20  H    0.227761
    21  H    0.122889
    22  H    0.105466
    23  H    0.257361
    24  H    0.216107
    25  H    0.242855
 Sum of Mulliken charges =  -0.00000

 Dipole moment (field-independent basis, Debye):
    X=             -4.0571    Y=             -1.0232    Z=              0.0805  Tot=              4.1849
 Quadrupole moment (field-independent basis, Debye-Ang):
   XX=            -70.4654   YY=            -67.9407   ZZ=            -67.5157
   XY=             -3.0295   XZ=              3.2989   YZ=              3.9544

  Exact polarizability: 142.217 -13.585  93.048   0.444   1.445  73.577
 Approx polarizability: 159.162 -23.520 156.095   2.356   0.289 117.757

                      1                      2                      3
                      A                      A                      A
 Frequencies --     29.5451                47.8135                65.9303
 Red. masses --      2.8878                 4.6936                 3.6374
 Frc consts  --      0.0015                 0.0063                 0.0093
 IR Inten    --      1.2036                 0.6495                 0.6280

                      4                      5                      6
                      A                      A                      A
 Frequencies --     77.2861               104.9220               111.6487
 Red. masses --      2.3456                 2.7740                 3.5642
 Frc consts  --      0.0083                 0.0180                 0.0262
 IR Inten    --      2.5774                 0.5524                 1.2638

                      7                      8                      9
                      A                      A                      A
 Frequencies --    133.6839               222.4318               225.8058
 Red. masses --      2.0994                 4.4424                 3.9676
 Frc consts  --      0.0221                 0.1295                 0.1192
 IR Inten    --      3.0796                 1.6937                 1.1168

                     10                     11                     12
                      A                      A                      A
 Frequencies --    251.2696               259.5736               332.7269
 Red. masses --      1.2955                 3.8813                 3.9623
 Frc consts  --      0.0482                 0.1541                 0.2584
 IR Inten    --      1.7890                 1.0221                 7.0954

                     13                     14                     15
                      A                      A                      A
 Frequencies --    406.3335               429.3460               469.6500
 Red. masses --      3.3099                 3.8771                 2.3369
 Frc consts  --      0.3220                 0.4211                 0.3037
 IR Inten    --      5.3136                 2.5600                 2.6165

                     16                     17                     18
                      A                      A                      A
 Frequencies --    482.9660               620.7404               662.2204
 Red. masses --      3.0381                 3.4459                 1.6230
 Frc consts  --      0.4175                 0.7823                 0.4194
 IR Inten    --      4.7812                44.1189               120.8188

                     19                     20                     21
                      A                      A                      A
 Frequencies --    694.4549               743.2727               780.1581
 Red. masses --      2.3786                 1.2001                 1.3361
 Frc consts  --      0.6759                 0.3906                 0.4791
 IR Inten    --     20.6268                 4.0266                91.3594

                     22                     23                     24
                      A                      A                      A
 Frequencies --    808.1290               868.9907               910.6039
 Red. masses --      1.8982                 1.2803                 3.1886
 Frc consts  --      0.7304                 0.5696                 1.5578
 IR Inten    --     41.4394                24.6179                 7.8197

                     25                     26                     27
                      A                      A                      A
 Frequencies --    934.3542               990.6205              1006.1706
 Red. masses --      1.2066                 1.9924                 2.4821
 Frc consts  --      0.6207                 1.1520                 1.4805
 IR Inten    --     34.8506                 5.6591                33.3320

                     28                     29                     30
                      A                      A                      A
 Frequencies --   1025.1037              1064.5510              1085.8208
 Red. masses --      1.5512                 1.7321                 1.8267
 Frc consts  --      0.9604                 1.1566                 1.2689
 IR Inten    --     25.2310                 6.1987                38.7277

                     31                     32                     33
                      A                      A                      A
 Frequencies --   1112.8901              1138.0937              1144.4140
 Red. masses --      2.7948                 1.9391                 1.9475
 Frc consts  --      2.0394                 1.4798                 1.5028
 IR Inten    --     82.3405                 8.2662                 3.3241

                     34                     35                     36
                      A                      A                      A
 Frequencies --   1157.8485              1187.7640              1233.5669
 Red. masses --      2.3166                 1.9357                 1.9689
 Frc consts  --      1.8298                 1.6090                 1.7653
 IR Inten    --     61.6073                13.2132                 2.9390

                     37                     38                     39
                      A                      A                      A
 Frequencies --   1235.9722              1258.0246              1282.6501
 Red. masses --      1.5981                 1.2819                 1.4341
 Frc consts  --      1.4383                 1.1953                 1.3901
 IR Inten    --     36.0845                17.1657                34.3129

                     40                     41                     42
                      A                      A                      A
 Frequencies --   1316.0040              1331.1247              1394.4592
 Red. masses --      1.1005                 1.4162                 1.5341
 Frc consts  --      1.1229                 1.4785                 1.7576
 IR Inten    --      5.9238                 6.8502                 2.5292

                     43                     44                     45
                      A                      A                      A
 Frequencies --   1425.6166              1444.4257              1460.3805
 Red. masses --      1.8490                 1.4247                 1.1564
 Frc consts  --      2.2140                 1.7513                 1.4531
 IR Inten    --     54.0434                67.0657                 2.0703

                     46                     47                     48
                      A                      A                      A
 Frequencies --   1463.4226              1484.2961              1486.0000
 Red. masses --      1.1166                 1.2130                 1.1321
 Frc consts  --      1.4090                 1.5745                 1.4729
 IR Inten    --      5.5716                 0.3794                13.3827

                     49                     50                     51
                      A                      A                      A
 Frequencies --   1492.9304              1497.7190              1516.7527
 Red. masses --      1.1183                 1.2511                 1.0675
 Frc consts  --      1.4685                 1.6535                 1.4469
 IR Inten    --      2.9796                 9.1456                12.5744

                     52                     53                     54
                      A                      A                      A
 Frequencies --   1526.6383              1532.1253              1580.2842
 Red. masses --      1.0842                 1.2139                 5.6429
 Frc consts  --      1.4888                 1.6789                 8.3028
 IR Inten    --      1.5858                29.0563               122.4052

                     55                     56                     57
                      A                      A                      A
 Frequencies --   1730.4955              2905.8649              2921.5728
 Red. masses --      8.3329                 1.0724                 1.0734
 Frc consts  --     14.7024                 5.3354                 5.3979
 IR Inten    --     60.6359                59.8708                37.8836

                     58                     59                     60
                      A                      A                      A
 Frequencies --   2944.5578              3005.6476              3029.8242
 Red. masses --      1.0591                 1.0677                 1.0830
 Frc consts  --      5.4104                 5.6832                 5.8576
 IR Inten    --     94.7491                 6.2661                13.6950

                     61                     62                     63
                      A                      A                      A
 Frequencies --   3033.3129              3053.4309              3056.8291
 Red. masses --      1.0829                 1.0953                 1.0749
 Frc consts  --      5.8703                 6.0165                 5.9177
 IR Inten    --     31.2751                21.6982                36.5321

                     64                     65                     66
                      A                      A                      A
 Frequencies --   3106.7419              3347.1951              3391.2436
 Red. masses --      1.1007                 1.0719                 1.0748
 Frc consts  --      6.2592                 7.0755                 7.2825
 IR Inten    --     27.5213                 8.8195                 0.3814

                     67                     68                     69
                      A                      A                      A
 Frequencies --   3473.1636              3509.1297              3535.4301
 Red. masses --      1.0746                 1.0736                 1.0752
 Frc consts  --      7.6377                 7.7892                 7.9179
 IR Inten    --      0.6799                 0.2423                44.2894

 - Thermochemistry -
 -------------------
 Temperature   298.150 Kelvin.  Pressure   1.00000 Atm.
 Atom     1 has atomic number  6 and mass  12.00000

 Molecular mass:   158.12799 amu.
 Principal axes and moments of inertia in atomic units:
                           1         2         3
     Eigenvalues --   417.490826074.100826382.77878
           X            1.00000  -0.00123   0.00203
           Y            0.00119   0.99981   0.01948
           Z           -0.00205  -0.01948   0.99981
 This molecule is an asymmetric top.
 Rotational symmetry number  1.
 Rotational temperatures (Kelvin)      0.20746     0.01426     0.01357
 Rotational constants (GHZ):           4.32283     0.29712     0.28275
 Zero-point vibrational energy     565797.6 (Joules/Mol)
                                  135.22886 (Kcal/Mol)
 Warning -- explicit consideration of  17 degrees of freedom as
           vibrations may cause significant error
 Vibrational temperatures:     42.51    68.79    94.86   111.20   150.96
          (Kelvin)            160.64   192.34   320.03   324.88   361.52
                              373.47   478.72   584.62   617.73   675.72
                              694.88   893.11   952.79   999.17  1069.40
                             1122.47  1162.72  1250.28  1310.16  1344.33
                             1425.28  1447.66  1474.90  1531.65  1562.25
                             1601.20  1637.46  1646.56  1665.89  1708.93
                             1774.83  1778.29  1810.02  1845.45  1893.44
                             1915.19  2006.32  2051.14  2078.21  2101.16
                             2105.54  2135.57  2138.02  2147.99  2154.88
                             2182.27  2196.49  2204.39  2273.68  2489.80
                             4180.89  4203.49  4236.56  4324.46  4359.24
                             4364.26  4393.21  4398.10  4469.91  4815.87
                             4879.24  4997.11  5048.86  5086.70

 Zero-point correction=                           0.215501 (Hartree/Particle)
 Thermal correction to Energy=                    0.228420
 Thermal correction to Enthalpy=                  0.229364
 Thermal correction to Gibbs Free Energy=         0.174411
 Sum of electronic and zero-point Energies=           -527.166811
 Sum of electronic and thermal Energies=              -527.153892
 Sum of electronic and thermal Enthalpies=            -527.152948
 Sum of electronic and thermal Free Energies=         -527.207901

                     E (Thermal)             CV                S
                      KCal/Mol        Cal/Mol-Kelvin    Cal/Mol-Kelvin
 Total                  143.336             45.106            115.659
 Electronic               0.000              0.000              0.000
 Translational            0.889              2.981             41.084
 Rotational               0.889              2.981             31.160
 Vibrational            141.558             39.144             43.415
 Vibration     1          0.593              1.984              5.860
 Vibration     2          0.595              1.978              4.906
 Vibration     3          0.597              1.971              4.271
 Vibration     4          0.599              1.964              3.959
 Vibration     5          0.605              1.945              3.361
 Vibration     6          0.607              1.940              3.240
 Vibration     7          0.613              1.920              2.892
 Vibration     8          0.648              1.807              1.939
 Vibration     9          0.650              1.802              1.912
 Vibration    10          0.663              1.761              1.722
 Vibration    11          0.668              1.747              1.665
 Vibration    12          0.715              1.610              1.247
 Vibration    13          0.771              1.456              0.940
 Vibration    14          0.791              1.406              0.861
 Vibration    15          0.827              1.317              0.739
 Vibration    16          0.839              1.288              0.702
 Vibration    17          0.981              0.988              0.415

                           ! Non-Optimized Parameters !
 Normal termination of Gaussian 16 at Tue Jun  1 09:25:01 2021.
