 Gaussian 16, Revision A.03,
 Gaussian 16:  ES64L-G16RevA.03 25-Dec-2016

 -----------------------------
 # opt freq b3lyp/6-31g(2df,p)
 -----------------------------

 -------------------
 Title Card Required
 -------------------
 Symbolic Z-matrix:
 Charge =  0 Multiplicity = 1

 SCF Done:  E(RB3LYP) =  -436.579423860     A.U. after   14 cycles
 SCF Done:  E(RB3LYP) =  -436.584996832     A.U. after   12 cycles
 SCF Done:  E(RB3LYP) =  -436.585600007     A.U. after   12 cycles
 SCF Done:  E(RB3LYP) =  -436.585221951     A.U. after   12 cycles
 SCF Done:  E(RB3LYP) =  -436.585773474     A.U. after   12 cycles
 SCF Done:  E(RB3LYP) =  -436.585790190     A.U. after   11 cycles
 SCF Done:  E(RB3LYP) =  -436.585803839     A.U. after   10 cycles
 SCF Done:  E(RB3LYP) =  -436.585805765     A.U. after   10 cycles
 SCF Done:  E(RB3LYP) =  -436.585811434     A.U. after    9 cycles
 SCF Done:  E(RB3LYP) =  -436.552664582     A.U. after   14 cycles
 SCF Done:  E(RB3LYP) =  -436.586660065     A.U. after   14 cycles
 SCF Done:  E(RB3LYP) =  -436.588052686     A.U. after   13 cycles
 SCF Done:  E(RB3LYP) =  -436.589539000     A.U. after   13 cycles
 SCF Done:  E(RB3LYP) =  -436.589849958     A.U. after   13 cycles
 SCF Done:  E(RB3LYP) =  -436.589912451     A.U. after   13 cycles
 SCF Done:  E(RB3LYP) =  -436.589927385     A.U. after   10 cycles
 SCF Done:  E(RB3LYP) =  -436.589937045     A.U. after   11 cycles
 SCF Done:  E(RB3LYP) =  -436.589937853     A.U. after    8 cycles
 SCF Done:  E(RB3LYP) =  -436.589938072     A.U. after    8 cycles
 Optimization completed.
    -- Stationary point found.
 Normal termination of Gaussian 16 at Tue Jun  1 02:59:17 2021.

 ----------------------------------------------------------------------
 #N Geom=AllCheck Guess=TCheck SCRF=Check GenChk RB3LYP/6-31G(2df,p) Fr
 eq
 ----------------------------------------------------------------------

 Structure from the checkpoint file:  "CNCCCpdOpCNdN.chk"
 -------------------
 Title Card Required
 -------------------
 Charge =  0 Multiplicity = 1

                         Standard orientation:
 ---------------------------------------------------------------------
 Center     Atomic      Atomic             Coordinates (Angstroms)
 Number     Number       Type             X           Y           Z
 ---------------------------------------------------------------------
      1          6           0       -4.211653    0.306322   -0.068947
      2          7           0       -3.016486   -0.516873    0.066889
      3          6           0       -1.782220    0.242892   -0.085499
      4          6           0       -0.568754   -0.663394    0.100229
      5          6           0        0.753275    0.084484    0.094866
      6          8           0        0.831219    1.286814    0.145119
      7          6           0        2.001493   -0.804531   -0.006967
      8          7           0        3.191101   -0.080872    0.440100
      9          7           0        3.939569    0.215234   -0.503199
     10          1           0       -5.102380   -0.325159   -0.001791
     11          1           0       -4.264047    0.878416   -1.012783
     12          1           0       -4.251360    1.028032    0.754669
     13          1           0       -3.043223   -1.257216   -0.627904
     14          1           0       -1.760421    1.025454    0.680573
     15          1           0       -1.706107    0.768290   -1.055161
     16          1           0       -0.532810   -1.447978   -0.669444
     17          1           0       -0.651385   -1.199533    1.056037
     18          1           0        2.099811   -1.133364   -1.052057
     19          1           0        1.875642   -1.685582    0.632030
     20          1           0        4.734400    0.737075   -0.093740
 ---------------------------------------------------------------------

 SCF Done:  E(RB3LYP) =  -436.589938072     A.U. after    1 cycles

 The electronic state is 1-A.
 Alpha  occ. eigenvalues --  -19.13895 -14.38817 -14.37734 -14.31600 -10.28098
 Alpha  occ. eigenvalues --  -10.22193 -10.20804 -10.20034 -10.19939  -1.05355
 Alpha  occ. eigenvalues --   -1.03065  -0.90317  -0.79745  -0.76500  -0.68110
 Alpha  occ. eigenvalues --   -0.63707  -0.60481  -0.53247  -0.50973  -0.49148
 Alpha  occ. eigenvalues --   -0.48916  -0.46059  -0.44537  -0.43808  -0.42531
 Alpha  occ. eigenvalues --   -0.40427  -0.39561  -0.37355  -0.36716  -0.35971
 Alpha  occ. eigenvalues --   -0.35328  -0.34951  -0.25678  -0.23317  -0.22446
 Alpha virt. eigenvalues --   -0.04632  -0.01706   0.07719   0.09196   0.10912
 Alpha virt. eigenvalues --    0.11976   0.13599   0.14272   0.15098   0.15798
 Alpha virt. eigenvalues --    0.16226   0.17914   0.18586   0.19898   0.21608

 Mulliken charges:
               1
     1  C   -0.310278
     2  N   -0.285942
     3  C   -0.122299
     4  C   -0.324414
     5  C    0.381074
     6  O   -0.286062
     7  C   -0.219329
     8  N   -0.084464
     9  N   -0.274706
    10  H    0.117046
    11  H    0.095109
    12  H    0.125306
    13  H    0.212008
    14  H    0.124919
    15  H    0.088183
    16  H    0.112937
    17  H    0.141717
    18  H    0.131278
    19  H    0.129364
    20  H    0.248554
 Sum of Mulliken charges =   0.00000

 Dipole moment (field-independent basis, Debye):
    X=             -0.8283    Y=             -2.2457    Z=             -0.7471  Tot=              2.5075
 Quadrupole moment (field-independent basis, Debye-Ang):
   XX=            -49.9711   YY=            -54.8379   ZZ=            -55.7349
   XY=             -0.9668   XZ=              3.5348   YZ=              1.1922

  Exact polarizability: 108.434   5.094  71.237  -2.791   0.047  60.693
 Approx polarizability: 121.508  10.251 116.502  -7.606  -0.872  98.293

                      1                      2                      3
                      A                      A                      A
 Frequencies --     35.4812                50.5900                67.5593
 Red. masses --      5.1668                 3.2799                 2.6448
 Frc consts  --      0.0038                 0.0049                 0.0071
 IR Inten    --      0.3628                 0.4957                 1.5052

                      4                      5                      6
                      A                      A                      A
 Frequencies --     82.7616               116.6210               133.7884
 Red. masses --      2.9190                 4.2221                 2.0857
 Frc consts  --      0.0118                 0.0338                 0.0220
 IR Inten    --      0.3808                 3.5153                 1.6524

                      7                      8                      9
                      A                      A                      A
 Frequencies --    241.2627               250.2042               288.1734
 Red. masses --      2.9468                 1.3516                 6.0548
 Frc consts  --      0.1011                 0.0499                 0.2963
 IR Inten    --      1.6807                 1.5280                 0.2179

                     10                     11                     12
                      A                      A                      A
 Frequencies --    318.7199               458.3178               477.8929
 Red. masses --      4.9874                 2.4875                 2.3632
 Frc consts  --      0.2985                 0.3079                 0.3180
 IR Inten    --      5.6356                 2.1610                 0.8946

                     13                     14                     15
                      A                      A                      A
 Frequencies --    546.4117               650.0144               764.1942
 Red. masses --      2.5527                 3.6701                 1.3547
 Frc consts  --      0.4490                 0.9136                 0.4661
 IR Inten    --     20.8965                10.2928                 3.7559

                     16                     17                     18
                      A                      A                      A
 Frequencies --    780.2810               836.0878               904.5254
 Red. masses --      1.4061                 2.3786                 1.8651
 Frc consts  --      0.5044                 0.9797                 0.8991
 IR Inten    --     57.7908                42.3876                 2.2076

                     19                     20                     21
                      A                      A                      A
 Frequencies --    961.3493               979.3539              1007.7959
 Red. masses --      2.5526                 1.6423                 1.7928
 Frc consts  --      1.3899                 0.9281                 1.0728
 IR Inten    --      9.4130                18.7037                 3.7507

                     22                     23                     24
                      A                      A                      A
 Frequencies --   1050.2506              1080.2704              1085.7036
 Red. masses --      2.4917                 2.0079                 1.9492
 Frc consts  --      1.6193                 1.3806                 1.3537
 IR Inten    --     57.8949                 3.9338               104.3697

                     25                     26                     27
                      A                      A                      A
 Frequencies --   1139.3468              1150.2010              1189.5524
 Red. masses --      1.4930                 2.4233                 1.9441
 Frc consts  --      1.1419                 1.8889                 1.6208
 IR Inten    --      1.1648                55.4767                 6.3933

                     28                     29                     30
                      A                      A                      A
 Frequencies --   1223.5637              1252.7168              1305.2596
 Red. masses --      1.3031                 1.4134                 1.2553
 Frc consts  --      1.1494                 1.3068                 1.2601
 IR Inten    --     14.1114                 1.2979                 7.8046

                     31                     32                     33
                      A                      A                      A
 Frequencies --   1319.6681              1344.7653              1407.5487
 Red. masses --      1.2652                 1.6651                 1.5234
 Frc consts  --      1.2982                 1.7741                 1.7782
 IR Inten    --      4.6434                24.5272                53.4701

                     34                     35                     36
                      A                      A                      A
 Frequencies --   1443.9618              1454.0218              1461.2754
 Red. masses --      1.0946                 1.0990                 1.1819
 Frc consts  --      1.3447                 1.3690                 1.4869
 IR Inten    --      3.9899                12.4224                 0.8820

                     37                     38                     39
                      A                      A                      A
 Frequencies --   1484.6532              1492.3901              1495.8924
 Red. masses --      1.1521                 1.1060                 1.2798
 Frc consts  --      1.4963                 1.4513                 1.6873
 IR Inten    --     11.4703                 3.8213                29.2935

                     40                     41                     42
                      A                      A                      A
 Frequencies --   1512.7452              1520.1762              1659.3681
 Red. masses --      1.0815                 1.0623                10.2345
 Frc consts  --      1.4581                 1.4463                16.6035
 IR Inten    --      4.1399                 7.4793                 3.3267

                     43                     44                     45
                      A                      A                      A
 Frequencies --   1817.9785              2935.7389              2944.7717
 Red. masses --     11.0771                 1.0724                 1.0602
 Frc consts  --     21.5702                 5.4454                 5.4167
 IR Inten    --    104.3993                37.5333               110.0317

                     46                     47                     48
                      A                      A                      A
 Frequencies --   3002.4982              3012.5829              3042.8051
 Red. masses --      1.0617                 1.0621                 1.0940
 Frc consts  --      5.6392                 5.6792                 5.9681
 IR Inten    --     14.2923                16.4083                 5.6847

                     49                     50                     51
                      A                      A                      A
 Frequencies --   3056.7212              3070.6962              3079.8304
 Red. masses --      1.0741                 1.0886                 1.0971
 Frc consts  --      5.9129                 6.0479                 6.1314
 IR Inten    --     36.2960                21.4956                 8.1528

                     52                     53                     54
                      A                      A                      A
 Frequencies --   3103.8443              3252.7794              3503.3470
 Red. masses --      1.1014                 1.0738                 1.0735
 Frc consts  --      6.2517                 6.6939                 7.7629
 IR Inten    --     29.6777                23.0798                 0.5563

 - Thermochemistry -
 -------------------
 Temperature   298.150 Kelvin.  Pressure   1.00000 Atm.
 Atom     1 has atomic number  6 and mass  12.00000

 Molecular mass:   129.09021 amu.
 Principal axes and moments of inertia in atomic units:
                           1         2         3
     Eigenvalues --   260.747243321.549843484.40438
           X            0.99997  -0.00696   0.00212
           Y            0.00694   0.99995   0.00740
           Z           -0.00217  -0.00739   0.99997
 This molecule is an asymmetric top.
 Rotational symmetry number  1.
 Rotational temperatures (Kelvin)      0.33218     0.02608     0.02486
 Rotational constants (GHZ):           6.92142     0.54334     0.51795
 Zero-point vibrational energy     441711.0 (Joules/Mol)
                                  105.57146 (Kcal/Mol)
 Warning -- explicit consideration of  13 degrees of freedom as
           vibrations may cause significant error
 Vibrational temperatures:     51.05    72.79    97.20   119.08   167.79
          (Kelvin)            192.49   347.12   359.99   414.62   458.57
                              659.42   687.58   786.16   935.23  1099.51
                             1122.65  1202.94  1301.41  1383.17  1409.07
                             1449.99  1511.08  1554.27  1562.09  1639.27
                             1654.88  1711.50  1760.44  1802.38  1877.98
                             1898.71  1934.82  2025.15  2077.54  2092.01
                             2102.45  2136.08  2147.22  2152.26  2176.50
                             2187.19  2387.46  2615.67  4223.87  4236.87
                             4319.93  4334.43  4377.92  4397.94  4418.05
                             4431.19  4465.74  4680.02  5040.53

 Zero-point correction=                           0.168239 (Hartree/Particle)
 Thermal correction to Energy=                    0.179024
 Thermal correction to Enthalpy=                  0.179968
 Thermal correction to Gibbs Free Energy=         0.130174
 Sum of electronic and zero-point Energies=           -436.421699
 Sum of electronic and thermal Energies=              -436.410914
 Sum of electronic and thermal Enthalpies=            -436.409970
 Sum of electronic and thermal Free Energies=         -436.459764

                     E (Thermal)             CV                S
                      KCal/Mol        Cal/Mol-Kelvin    Cal/Mol-Kelvin
 Total                  112.339             36.169            104.800
 Electronic               0.000              0.000              0.000
 Translational            0.889              2.981             40.479
 Rotational               0.889              2.981             29.491
 Vibrational            110.562             30.207             34.830
 Vibration     1          0.594              1.982              5.497
 Vibration     2          0.595              1.977              4.794
 Vibration     3          0.598              1.970              4.223
 Vibration     4          0.600              1.961              3.824
 Vibration     5          0.608              1.936              3.156
 Vibration     6          0.613              1.920              2.891
 Vibration     7          0.658              1.777              1.794
 Vibration     8          0.663              1.762              1.729
 Vibration     9          0.685              1.696              1.485
 Vibration    10          0.705              1.638              1.317
 Vibration    11          0.816              1.342              0.771
 Vibration    12          0.834              1.299              0.716
 Vibration    13          0.902              1.148              0.552

 Optimization completed.
    -- Stationary point found.
 Normal termination of Gaussian 16 at Tue Jun  1 03:22:09 2021.
