 Gaussian 16, Revision A.03,
 Gaussian 16:  ES64L-G16RevA.03 25-Dec-2016

 -----------------------------
 # opt freq b3lyp/6-31g(2df,p)
 -----------------------------

 -------------------
 Title Card Required
 -------------------
 Symbolic Z-matrix:
 Charge =  0 Multiplicity = 1

 SCF Done:  E(RB3LYP) =  -227.392908776     A.U. after   13 cycles
 SCF Done:  E(RB3LYP) =  -227.415679549     A.U. after   12 cycles
 SCF Done:  E(RB3LYP) =  -227.416048790     A.U. after   11 cycles
 SCF Done:  E(RB3LYP) =  -227.416110595     A.U. after   10 cycles
 SCF Done:  E(RB3LYP) =  -227.416120627     A.U. after    9 cycles
 SCF Done:  E(RB3LYP) =  -227.416123725     A.U. after    8 cycles
 SCF Done:  E(RB3LYP) =  -227.416124699     A.U. after    7 cycles
 Optimization completed.
    -- Stationary point found.
 Normal termination of Gaussian 16 at Tue Jun  1 04:56:47 2021.

 ----------------------------------------------------------------------
 #N Geom=AllCheck Guess=TCheck SCRF=Check GenChk RB3LYP/6-31G(2df,p) Fr
 eq
 ----------------------------------------------------------------------

 Structure from the checkpoint file:  "CNCCtN.chk"
 -------------------
 Title Card Required
 -------------------
 Charge =  0 Multiplicity = 1

                         Standard orientation:
 ---------------------------------------------------------------------
 Center     Atomic      Atomic             Coordinates (Angstroms)
 Number     Number       Type             X           Y           Z
 ---------------------------------------------------------------------
      1          6           0        2.222098   -0.035071   -0.010759
      2          7           0        0.841842   -0.493829   -0.108770
      3          6           0       -0.114299    0.594311    0.043336
      4          6           0       -1.493256    0.100594   -0.007546
      5          7           0       -2.580115   -0.289556   -0.023894
      6          1           0        2.891710   -0.896139   -0.075276
      7          1           0        2.451681    0.515804    0.918567
      8          1           0        2.446992    0.627121   -0.854406
      9          1           0        0.658222   -1.203610    0.592050
     10          1           0        0.028270    1.305946   -0.780197
     11          1           0        0.003784    1.175570    0.977722
 ---------------------------------------------------------------------

 SCF Done:  E(RB3LYP) =  -227.416124699     A.U. after    1 cycles

 The electronic state is 1-A.
 Alpha  occ. eigenvalues --  -14.34189 -14.33130 -10.26189 -10.22254 -10.22018
 Alpha  occ. eigenvalues --   -0.93478  -0.89824  -0.75448  -0.66480  -0.54694
 Alpha  occ. eigenvalues --   -0.49708  -0.47390  -0.43585  -0.41629  -0.39249
 Alpha  occ. eigenvalues --   -0.35819  -0.33322  -0.32786  -0.24897
 Alpha virt. eigenvalues --    0.02082   0.03909   0.07738   0.10571   0.12355
 Alpha virt. eigenvalues --    0.14819   0.15618   0.17304   0.18956   0.20671
 Alpha virt. eigenvalues --    0.23955   0.31433   0.41819   0.44689   0.48118

 Mulliken charges:
               1
     1  C   -0.313828
     2  N   -0.279484
     3  C   -0.256066
     4  C    0.257532
     5  N   -0.296520
     6  H    0.132766
     7  H    0.102180
     8  H    0.130981
     9  H    0.235694
    10  H    0.157086
    11  H    0.129659
 Sum of Mulliken charges =  -0.00000

 Dipole moment (field-independent basis, Debye):
    X=              3.8331    Y=              1.2492    Z=              0.9670  Tot=              4.1459
 Quadrupole moment (field-independent basis, Debye-Ang):
   XX=            -38.9241   YY=            -28.8504   ZZ=            -29.9810
   XY=             -2.1024   XZ=              0.2804   YZ=             -1.7765

  Exact polarizability:  58.980   2.899  37.829   0.120  -0.311  33.754
 Approx polarizability:  81.461   8.720  56.204   0.099  -0.339  49.300

                      1                      2                      3
                      A                      A                      A
 Frequencies --     96.7909               175.4073               245.1811
 Red. masses --      2.9019                 4.8418                 1.1168
 Frc consts  --      0.0160                 0.0878                 0.0396
 IR Inten    --      3.0589                 4.1156                 1.5855

                      4                      5                      6
                      A                      A                      A
 Frequencies --    361.2499               394.9830               547.6600
 Red. masses --      3.3046                 3.6998                 8.0280
 Frc consts  --      0.2541                 0.3401                 1.4187
 IR Inten    --      3.6754                 1.5227                 3.5176

                      7                      8                      9
                      A                      A                      A
 Frequencies --    767.9652               937.3343               984.5023
 Red. masses --      1.2985                 2.9790                 2.3992
 Frc consts  --      0.4512                 1.5421                 1.3701
 IR Inten    --    101.9197                 0.3873                 6.3965

                     10                     11                     12
                      A                      A                      A
 Frequencies --    998.5681              1141.2194              1158.4480
 Red. masses --      1.5457                 2.2965                 1.6535
 Frc consts  --      0.9081                 1.7622                 1.3074
 IR Inten    --      6.9540                17.3845                23.8058

                     13                     14                     15
                      A                      A                      A
 Frequencies --   1188.5847              1271.4821              1378.2473
 Red. masses --      1.6652                 1.2778                 1.3802
 Frc consts  --      1.3861                 1.2171                 1.5447
 IR Inten    --      3.1918                 6.2326                19.5403

                     16                     17                     18
                      A                      A                      A
 Frequencies --   1459.8566              1485.6079              1489.3951
 Red. masses --      1.1669                 1.0747                 1.1477
 Frc consts  --      1.4652                 1.3975                 1.5000
 IR Inten    --      0.9869                15.6779                 0.5917

                     19                     20                     21
                      A                      A                      A
 Frequencies --   1498.3287              1518.2149              2369.5049
 Red. masses --      1.0869                 1.0617                12.6247
 Frc consts  --      1.4377                 1.4419                41.7626
 IR Inten    --      4.7024                10.7684                 3.1097

                     22                     23                     24
                      A                      A                      A
 Frequencies --   2925.5852              2950.4584              3042.3573
 Red. masses --      1.0725                 1.0583                 1.0840
 Frc consts  --      5.4085                 5.4281                 5.9117
 IR Inten    --     43.9443                79.0674                 9.0845

                     25                     26                     27
                      A                      A                      A
 Frequencies --   3061.3839              3117.7331              3532.9008
 Red. masses --      1.0772                 1.0997                 1.0744
 Frc consts  --      5.9482                 6.2982                 7.9009
 IR Inten    --     29.8551                19.4260                 2.3951

 - Thermochemistry -
 -------------------
 Temperature   298.150 Kelvin.  Pressure   1.00000 Atm.
 Atom     1 has atomic number  6 and mass  12.00000

 Molecular mass:    70.05310 amu.
 Principal axes and moments of inertia in atomic units:
                           1         2         3
     Eigenvalues --    66.73090 760.42177 800.84464
           X            1.00000  -0.00174   0.00206
           Y            0.00184   0.99879  -0.04921
           Z           -0.00197   0.04921   0.99879
 This molecule is an asymmetric top.
 Rotational symmetry number  1.
 Rotational temperatures (Kelvin)      1.29796     0.11390     0.10815
 Rotational constants (GHZ):          27.04506     2.37334     2.25355
 Zero-point vibrational energy     239845.0 (Joules/Mol)
                                   57.32433 (Kcal/Mol)
 Warning -- explicit consideration of   6 degrees of freedom as
           vibrations may cause significant error
 Vibrational temperatures:    139.26   252.37   352.76   519.76   568.29
          (Kelvin)            787.96  1104.93  1348.61  1416.48  1436.72
                             1641.96  1666.75  1710.11  1829.38  1982.99
                             2100.41  2137.46  2142.91  2155.76  2184.37
                             3409.19  4209.26  4245.05  4377.27  4404.65
                             4485.72  5083.06

 Zero-point correction=                           0.091352 (Hartree/Particle)
 Thermal correction to Energy=                    0.097190
 Thermal correction to Enthalpy=                  0.098134
 Thermal correction to Gibbs Free Energy=         0.062508
 Sum of electronic and zero-point Energies=           -227.324773
 Sum of electronic and thermal Energies=              -227.318935
 Sum of electronic and thermal Enthalpies=            -227.317991
 Sum of electronic and thermal Free Energies=         -227.353617

                     E (Thermal)             CV                S
                      KCal/Mol        Cal/Mol-Kelvin    Cal/Mol-Kelvin
 Total                   60.987             19.025             74.981
 Electronic               0.000              0.000              0.000
 Translational            0.889              2.981             38.657
 Rotational               0.889              2.981             25.211
 Vibrational             59.210             13.063             11.113
 Vibration     1          0.603              1.951              3.518
 Vibration     2          0.627              1.873              2.377
 Vibration     3          0.660              1.771              1.765
 Vibration     4          0.735              1.552              1.117
 Vibration     5          0.762              1.481              0.981
 Vibration     6          0.903              1.145              0.549

                           ! Non-Optimized Parameters !
 Normal termination of Gaussian 16 at Tue Jun  1 05:03:25 2021.
