 Gaussian 16, Revision A.03,
 Gaussian 16:  ES64L-G16RevA.03 25-Dec-2016

 -----------------------------
 # opt freq b3lyp/6-31g(2df,p)
 -----------------------------

 -------------------
 Title Card Required
 -------------------
 Symbolic Z-matrix:
 Charge =  0 Multiplicity = 1

 SCF Done:  E(RB3LYP) =  -347.782178147     A.U. after   12 cycles
 SCF Done:  E(RB3LYP) =  -347.786372429     A.U. after   10 cycles
 SCF Done:  E(RB3LYP) =  -347.786946427     A.U. after   10 cycles
 SCF Done:  E(RB3LYP) =  -347.787110837     A.U. after   10 cycles
 SCF Done:  E(RB3LYP) =  -347.787137693     A.U. after    9 cycles
 SCF Done:  E(RB3LYP) =  -347.787145784     A.U. after    8 cycles
 SCF Done:  E(RB3LYP) =  -347.787148220     A.U. after    8 cycles
 SCF Done:  E(RB3LYP) =  -347.787148484     A.U. after    7 cycles
 SCF Done:  E(RB3LYP) =  -347.787148621     A.U. after    7 cycles
 SCF Done:  E(RB3LYP) =  -347.787148639     A.U. after    6 cycles
 Optimization completed.
    -- Stationary point found.
 Normal termination of Gaussian 16 at Tue Jun  1 19:58:50 2021.

 ----------------------------------------------------------------------
 #N Geom=AllCheck Guess=TCheck SCRF=Check GenChk RB3LYP/6-31G(2df,p) Fr
 eq
 ----------------------------------------------------------------------

 Structure from the checkpoint file:  "CNCCCpCpNC.chk"
 -------------------
 Title Card Required
 -------------------
 Charge =  0 Multiplicity = 1

                         Standard orientation:
 ---------------------------------------------------------------------
 Center     Atomic      Atomic             Coordinates (Angstroms)
 Number     Number       Type             X           Y           Z
 ---------------------------------------------------------------------
      1          6           0        3.882084    0.051711    0.221308
      2          7           0        2.638378   -0.510471   -0.284755
      3          6           0        1.452580    0.188726    0.195426
      4          6           0        0.180768   -0.460354   -0.351090
      5          6           0       -1.129749    0.139204    0.179753
      6          6           0       -1.301250    1.606438   -0.231428
      7          7           0       -2.244016   -0.662057   -0.337699
      8          6           0       -3.514769   -0.463725    0.347377
      9          1           0        4.727129   -0.552405   -0.122256
     10          1           0        3.934841    0.122452    1.323613
     11          1           0        4.014202    1.064353   -0.177312
     12          1           0        2.578521   -1.488300   -0.017897
     13          1           0        1.524024    1.228178   -0.148284
     14          1           0        1.401705    0.233860    1.302167
     15          1           0        0.200330   -1.528955   -0.086569
     16          1           0        0.186771   -0.412292   -1.445785
     17          1           0       -1.098846    0.100447    1.288070
     18          1           0       -1.288235    1.697655   -1.322382
     19          1           0       -0.503708    2.229036    0.183616
     20          1           0       -2.249062    2.014200    0.130695
     21          1           0       -1.991902   -1.642648   -0.274421
     22          1           0       -3.930544    0.520803    0.110719
     23          1           0       -3.450067   -0.540733    1.448762
     24          1           0       -4.233674   -1.209951   -0.003629
 ---------------------------------------------------------------------

 SCF Done:  E(RB3LYP) =  -347.787148639     A.U. after    1 cycles

 The electronic state is 1-A.
 Alpha  occ. eigenvalues --  -14.30797 -14.30518 -10.20535 -10.19944 -10.19564
 Alpha  occ. eigenvalues --  -10.19444 -10.17508 -10.16600  -0.89932  -0.89212
 Alpha  occ. eigenvalues --   -0.77133  -0.71186  -0.67103  -0.64389  -0.60305
 Alpha  occ. eigenvalues --   -0.56247  -0.49105  -0.47736  -0.45569  -0.44519
 Alpha  occ. eigenvalues --   -0.42422  -0.42185  -0.40393  -0.39189  -0.38062
 Alpha  occ. eigenvalues --   -0.36348  -0.35831  -0.35373  -0.33389  -0.32437
 Alpha  occ. eigenvalues --   -0.31759  -0.21960  -0.21359
 Alpha virt. eigenvalues --    0.08155   0.08977   0.10915   0.12570   0.12767
 Alpha virt. eigenvalues --    0.13340   0.15410   0.16064   0.16484   0.16959
 Alpha virt. eigenvalues --    0.17141   0.17897   0.18776   0.19263   0.19769

 Mulliken charges:
               1
     1  C   -0.308274
     2  N   -0.279127
     3  C   -0.128797
     4  C   -0.209897
     5  C    0.070483
     6  C   -0.374144
     7  N   -0.287996
     8  C   -0.316728
     9  H    0.115269
    10  H    0.089580
    11  H    0.120658
    12  H    0.211128
    13  H    0.105055
    14  H    0.070657
    15  H    0.075209
    16  H    0.115964
    17  H    0.046411
    18  H    0.120328
    19  H    0.113818
    20  H    0.111525
    21  H    0.210492
    22  H    0.124000
    23  H    0.089174
    24  H    0.115210
 Sum of Mulliken charges =  -0.00000

 Dipole moment (field-independent basis, Debye):
    X=              0.1427    Y=             -0.6637    Z=              1.4431  Tot=              1.5949
 Quadrupole moment (field-independent basis, Debye-Ang):
   XX=            -51.8485   YY=            -49.4312   ZZ=            -56.0242
   XY=              0.0665   XZ=              0.3398   YZ=             -1.1375

  Exact polarizability: 104.133   1.182  77.516  -0.483   0.570  69.540
 Approx polarizability: 116.742   0.696 112.452  -0.500   1.912 107.124

                      1                      2                      3
                      A                      A                      A
 Frequencies --     55.8782                68.5849                97.5527
 Red. masses --      2.0940                 2.0803                 1.9593
 Frc consts  --      0.0039                 0.0058                 0.0110
 IR Inten    --      0.4187                 0.0922                 1.9769

                      4                      5                      6
                      A                      A                      A
 Frequencies --    116.5228               135.0882               209.5379
 Red. masses --      3.0023                 2.0494                 1.0518
 Frc consts  --      0.0240                 0.0220                 0.0272
 IR Inten    --      0.2189                 1.6472                 0.2341

                      7                      8                      9
                      A                      A                      A
 Frequencies --    246.6541               257.8031               271.5598
 Red. masses --      1.1455                 1.3883                 2.4565
 Frc consts  --      0.0411                 0.0544                 0.1067
 IR Inten    --      0.2447                 1.2720                 1.3538

                     10                     11                     12
                      A                      A                      A
 Frequencies --    303.4121               337.9234               441.6184
 Red. masses --      3.3935                 2.7193                 2.3174
 Frc consts  --      0.1841                 0.1830                 0.2663
 IR Inten    --      0.3471                 1.2158                 0.9093

                     13                     14                     15
                      A                      A                      A
 Frequencies --    465.2214               534.1426               762.6696
 Red. masses --      2.4762                 2.5555                 1.3984
 Frc consts  --      0.3158                 0.4296                 0.4792
 IR Inten    --     18.2166                 0.5558                 7.3034

                     16                     17                     18
                      A                      A                      A
 Frequencies --    781.3714               796.2589               847.8218
 Red. masses --      1.2352                 1.2981                 1.9810
 Frc consts  --      0.4443                 0.4849                 0.8390
 IR Inten    --    134.4544                13.7291                 0.5345

                     19                     20                     21
                      A                      A                      A
 Frequencies --    936.8045               968.2254               985.2130
 Red. masses --      1.7861                 1.4855                 1.7615
 Frc consts  --      0.9235                 0.8205                 1.0074
 IR Inten    --      0.9825                 3.8819                 6.4867

                     22                     23                     24
                      A                      A                      A
 Frequencies --   1044.4975              1064.6201              1096.4971
 Red. masses --      2.4380                 1.8408                 2.0423
 Frc consts  --      1.5671                 1.2293                 1.4467
 IR Inten    --      3.7868                 2.3626                 5.5902

                     25                     26                     27
                      A                      A                      A
 Frequencies --   1109.5675              1132.0717              1148.8405
 Red. masses --      1.3941                 1.4870                 2.4505
 Frc consts  --      1.0113                 1.1228                 1.9056
 IR Inten    --      6.7794                 2.5962                31.8373

                     28                     29                     30
                      A                      A                      A
 Frequencies --   1172.9848              1183.7990              1206.6384
 Red. masses --      2.1905                 2.1769                 1.8896
 Frc consts  --      1.7757                 1.7974                 1.6209
 IR Inten    --     62.9257                 6.9464                 7.8483

                     31                     32                     33
                      A                      A                      A
 Frequencies --   1217.6507              1260.7303              1309.6917
 Red. masses --      1.7085                 1.5116                 1.3365
 Frc consts  --      1.4925                 1.4155                 1.3507
 IR Inten    --      0.8210                 6.2997                 1.4976

                     34                     35                     36
                      A                      A                      A
 Frequencies --   1318.8546              1370.6778              1378.0622
 Red. masses --      1.0954                 1.3513                 1.3420
 Frc consts  --      1.1226                 1.4958                 1.5016
 IR Inten    --      6.1980                 6.9845                10.4720

                     37                     38                     39
                      A                      A                      A
 Frequencies --   1403.1819              1411.8826              1459.7931
 Red. masses --      1.2837                 1.4515                 1.1798
 Frc consts  --      1.4892                 1.7048                 1.4813
 IR Inten    --      7.1270                31.1948                 1.0155

                     40                     41                     42
                      A                      A                      A
 Frequencies --   1460.0887              1480.3540              1483.5073
 Red. masses --      1.1845                 1.1082                 1.1039
 Frc consts  --      1.4878                 1.4309                 1.4313
 IR Inten    --      0.3950                 0.6116                14.1125

                     43                     44                     45
                      A                      A                      A
 Frequencies --   1485.9915              1491.7560              1492.5607
 Red. masses --      1.0771                 1.1106                 1.1110
 Frc consts  --      1.4013                 1.4561                 1.4582
 IR Inten    --      6.6918                 2.7461                 2.5382

                     46                     47                     48
                      A                      A                      A
 Frequencies --   1505.1370              1508.8189              1516.3864
 Red. masses --      1.1196                 1.0558                 1.0677
 Frc consts  --      1.4944                 1.4161                 1.4466
 IR Inten    --      0.2602                 4.9032                15.0143

                     49                     50                     51
                      A                      A                      A
 Frequencies --   1522.9487              1524.3547              2879.1293
 Red. masses --      1.0850                 1.0795                 1.0794
 Frc consts  --      1.4827                 1.4779                 5.2716
 IR Inten    --     15.5210                 0.4821                34.4386

                     52                     53                     54
                      A                      A                      A
 Frequencies --   2897.6329              2932.3926              2933.9534
 Red. masses --      1.0737                 1.0609                 1.0604
 Frc consts  --      5.3115                 5.3748                 5.3783
 IR Inten    --     93.7629                76.1452               125.0570

                     55                     56                     57
                      A                      A                      A
 Frequencies --   2988.4544              3037.7105              3042.3630
 Red. masses --      1.0689                 1.0668                 1.0514
 Frc consts  --      5.6247                 5.8001                 5.7338
 IR Inten    --     32.9023                 5.1858                29.7887

                     58                     59                     60
                      A                      A                      A
 Frequencies --   3051.0359              3063.8223              3071.7832
 Red. masses --      1.0729                 1.0709                 1.0928
 Frc consts  --      5.8842                 5.9226                 6.0755
 IR Inten    --     42.4586                37.4826                36.7179

                     61                     62                     63
                      A                      A                      A
 Frequencies --   3099.9207              3102.7857              3113.1065
 Red. masses --      1.1007                 1.1017                 1.1002
 Frc consts  --      6.2318                 6.2489                 6.2824
 IR Inten    --     32.1379                32.8410                31.0965

                     64                     65                     66
                      A                      A                      A
 Frequencies --   3115.2984              3508.0418              3517.4546
 Red. masses --      1.1013                 1.0735                 1.0737
 Frc consts  --      6.2970                 7.7838                 7.8272
 IR Inten    --     27.7025                 0.4752                 0.5550

 - Thermochemistry -
 -------------------
 Temperature   298.150 Kelvin.  Pressure   1.00000 Atm.
 Atom     1 has atomic number  6 and mass  12.00000

 Molecular mass:   116.13135 amu.
 Principal axes and moments of inertia in atomic units:
                           1         2         3
     Eigenvalues --   321.956562502.576592688.60699
           X            1.00000   0.00062   0.00031
           Y           -0.00062   0.99989  -0.01451
           Z           -0.00032   0.01451   0.99989
 This molecule is an asymmetric top.
 Rotational symmetry number  1.
 Rotational temperatures (Kelvin)      0.26902     0.03461     0.03222
 Rotational constants (GHZ):           5.60554     0.72115     0.67126
 Zero-point vibrational energy     584595.3 (Joules/Mol)
                                  139.72162 (Kcal/Mol)
 Warning -- explicit consideration of  14 degrees of freedom as
           vibrations may cause significant error
 Vibrational temperatures:     80.40    98.68   140.36   167.65   194.36
          (Kelvin)            301.48   354.88   370.92   390.71   436.54
                              486.20   635.39   669.35   768.51  1097.31
                             1124.22  1145.64  1219.83  1347.85  1393.06
                             1417.50  1502.80  1531.75  1577.61  1596.42
                             1628.80  1652.93  1687.66  1703.22  1736.08
                             1751.93  1813.91  1884.35  1897.54  1972.10
                             1982.72  2018.87  2031.38  2100.32  2100.74
                             2129.90  2134.44  2138.01  2146.30  2147.46
                             2165.56  2170.85  2181.74  2191.18  2193.21
                             4142.42  4169.05  4219.06  4221.30  4299.72
                             4370.59  4377.28  4389.76  4408.16  4419.61
                             4460.09  4464.22  4479.07  4482.22  5047.29
                             5060.83

 Zero-point correction=                           0.222661 (Hartree/Particle)
 Thermal correction to Energy=                    0.233500
 Thermal correction to Enthalpy=                  0.234444
 Thermal correction to Gibbs Free Energy=         0.186214
 Sum of electronic and zero-point Energies=           -347.564488
 Sum of electronic and thermal Energies=              -347.553649
 Sum of electronic and thermal Enthalpies=            -347.552705
 Sum of electronic and thermal Free Energies=         -347.600934

                     E (Thermal)             CV                S
                      KCal/Mol        Cal/Mol-Kelvin    Cal/Mol-Kelvin
 Total                  146.523             38.151            101.508
 Electronic               0.000              0.000              0.000
 Translational            0.889              2.981             40.164
 Rotational               0.889              2.981             29.162
 Vibrational            144.746             32.189             32.182
 Vibration     1          0.596              1.975              4.598
 Vibration     2          0.598              1.969              4.194
 Vibration     3          0.603              1.951              3.503
 Vibration     4          0.608              1.936              3.157
 Vibration     5          0.613              1.918              2.872
 Vibration     6          0.642              1.826              2.048
 Vibration     7          0.661              1.768              1.754
 Vibration     8          0.667              1.750              1.677
 Vibration     9          0.675              1.726              1.586
 Vibration    10          0.695              1.667              1.398
 Vibration    11          0.718              1.600              1.222
 Vibration    12          0.801              1.379              0.822
 Vibration    13          0.823              1.327              0.751
 Vibration    14          0.889              1.174              0.578

 Optimization completed.
    -- Stationary point found.
 Normal termination of Gaussian 16 at Tue Jun  1 20:25:57 2021.
