 Gaussian 16, Revision A.03,
 Gaussian 16:  ES64L-G16RevA.03 25-Dec-2016

 -----------------------------
 # opt freq b3lyp/6-31g(2df,p)
 -----------------------------

 -------------------
 Title Card Required
 -------------------
 Symbolic Z-matrix:
 Charge =  0 Multiplicity = 1

 SCF Done:  E(RB3LYP) =  -442.421166613     A.U. after   12 cycles
 SCF Done:  E(RB3LYP) =  -442.428384281     A.U. after   10 cycles
 SCF Done:  E(RB3LYP) =  -442.429935142     A.U. after   10 cycles
 SCF Done:  E(RB3LYP) =  -442.430145827     A.U. after    9 cycles
 SCF Done:  E(RB3LYP) =  -442.430171627     A.U. after    8 cycles
 SCF Done:  E(RB3LYP) =  -442.430179444     A.U. after    8 cycles
 SCF Done:  E(RB3LYP) =  -442.430181839     A.U. after    8 cycles
 SCF Done:  E(RB3LYP) =  -442.430182191     A.U. after    7 cycles
 SCF Done:  E(RB3LYP) =  -442.430182321     A.U. after    6 cycles
 SCF Done:  E(RB3LYP) =  -442.430182342     A.U. after    6 cycles
 Optimization completed.
    -- Stationary point found.
 Normal termination of Gaussian 16 at Mon May 31 22:23:57 2021.

 ----------------------------------------------------------------------
 #N Geom=AllCheck Guess=TCheck SCRF=Check GenChk RB3LYP/6-31G(2df,p) Fr
 eq
 ----------------------------------------------------------------------

 Structure from the checkpoint file:  "CNCCpCpCCCNN.chk"
 -------------------
 Title Card Required
 -------------------
 Charge =  0 Multiplicity = 1

                         Standard orientation:
 ---------------------------------------------------------------------
 Center     Atomic      Atomic             Coordinates (Angstroms)
 Number     Number       Type             X           Y           Z
 ---------------------------------------------------------------------
      1          6           0       -4.747382   -0.881613   -0.053910
      2          7           0       -3.620834   -0.008943   -0.355998
      3          6           0       -2.361539   -0.491398    0.198513
      4          6           0       -1.156217    0.366552   -0.218126
      5          6           0       -1.292067    1.813618    0.278072
      6          6           0        0.143602   -0.297236    0.275511
      7          6           0        1.434743    0.312169   -0.283532
      8          6           0        2.685147   -0.446142    0.163506
      9          7           0        3.891355    0.153110   -0.398942
     10          7           0        5.111911   -0.415919    0.075728
     11          1           0       -5.670506   -0.438514   -0.439652
     12          1           0       -4.888900   -1.086756    1.023340
     13          1           0       -4.607412   -1.846769   -0.554446
     14          1           0       -3.817554    0.916254    0.009438
     15          1           0       -2.212616   -1.512639   -0.176532
     16          1           0       -2.384611   -0.572656    1.305049
     17          1           0       -1.140088    0.381832   -1.316385
     18          1           0       -1.368348    1.847639    1.372307
     19          1           0       -2.178313    2.300897   -0.140060
     20          1           0       -0.432861    2.423702   -0.014016
     21          1           0        0.116074   -1.361252    0.003604
     22          1           0        0.170452   -0.266868    1.374278
     23          1           0        1.526828    1.359497    0.032675
     24          1           0        1.402338    0.320946   -1.379705
     25          1           0        2.634169   -1.486842   -0.184573
     26          1           0        2.718800   -0.489730    1.271414
     27          1           0        3.923493    1.139572   -0.161306
     28          1           0        5.287663   -1.251197   -0.476104
     29          1           0        5.006647   -0.730555    1.044960
 ---------------------------------------------------------------------

 SCF Done:  E(RB3LYP) =  -442.430182342     A.U. after    1 cycles

 The electronic state is 1-A.
 Alpha  occ. eigenvalues --  -14.33058 -14.32826 -14.30785 -10.20176 -10.19768
 Alpha  occ. eigenvalues --  -10.19621 -10.18319 -10.17982 -10.17909 -10.17343
 Alpha  occ. eigenvalues --   -0.95063  -0.89619  -0.81152  -0.78099  -0.72546
 Alpha  occ. eigenvalues --   -0.68591  -0.66020  -0.62637  -0.59000  -0.55860
 Alpha  occ. eigenvalues --   -0.49772  -0.48869  -0.46720  -0.46430  -0.45548
 Alpha  occ. eigenvalues --   -0.43708  -0.42734  -0.42547  -0.39446  -0.39132
 Alpha  occ. eigenvalues --   -0.38062  -0.37072  -0.36160  -0.35178  -0.33666
 Alpha  occ. eigenvalues --   -0.32063  -0.31978  -0.31398  -0.24307  -0.22700
 Alpha  occ. eigenvalues --   -0.21733
 Alpha virt. eigenvalues --    0.07757   0.08440   0.10044   0.10319   0.11542
 Alpha virt. eigenvalues --    0.11855   0.12759   0.14075   0.14885   0.15545
 Alpha virt. eigenvalues --    0.16474   0.17090   0.17281   0.17557   0.18814

 Mulliken charges:
               1
     1  C   -0.308147
     2  N   -0.288296
     3  C   -0.128524
     4  C    0.017932
     5  C   -0.401983
     6  C   -0.180049
     7  C   -0.208582
     8  C   -0.114002
     9  N   -0.274024
    10  N   -0.467600
    11  H    0.114960
    12  H    0.090056
    13  H    0.119868
    14  H    0.215202
    15  H    0.094669
    16  H    0.067523
    17  H    0.081411
    18  H    0.108701
    19  H    0.115325
    20  H    0.118123
    21  H    0.091529
    22  H    0.090858
    23  H    0.093465
    24  H    0.110484
    25  H    0.096426
    26  H    0.068314
    27  H    0.225585
    28  H    0.239245
    29  H    0.211530
 Sum of Mulliken charges =  -0.00000

 Dipole moment (field-independent basis, Debye):
    X=             -1.1968    Y=             -0.4837    Z=              1.7413  Tot=              2.1676
 Quadrupole moment (field-independent basis, Debye-Ang):
   XX=            -73.2010   YY=            -61.4056   ZZ=            -67.1791
   XY=             -5.1786   XZ=              1.7217   YZ=              1.0272

  Exact polarizability: 131.168  -1.025  93.397   0.992  -0.709  84.404
 Approx polarizability: 143.439  -2.441 137.263   1.104  -1.128 133.094

                      1                      2                      3
                      A                      A                      A
 Frequencies --     41.5287                45.5549                71.1253
 Red. masses --      2.2220                 2.6277                 2.8950
 Frc consts  --      0.0023                 0.0032                 0.0086
 IR Inten    --      2.0130                 0.1412                 0.2555

                      4                      5                      6
                      A                      A                      A
 Frequencies --     88.9985                98.0556               132.0132
 Red. masses --      2.2477                 2.6073                 1.8116
 Frc consts  --      0.0105                 0.0148                 0.0186
 IR Inten    --      3.3973                 1.9512                 1.6798

                      7                      8                      9
                      A                      A                      A
 Frequencies --    146.4458               173.8301               232.4671
 Red. masses --      2.3106                 3.2186                 1.5827
 Frc consts  --      0.0292                 0.0573                 0.0504
 IR Inten    --      0.7138                 1.9958                 0.3231

                     10                     11                     12
                      A                      A                      A
 Frequencies --    246.1670               257.2326               296.7598
 Red. masses --      2.0940                 1.1991                 2.9533
 Frc consts  --      0.0748                 0.0467                 0.1532
 IR Inten    --      0.1425                 1.3425                 1.7241

                     13                     14                     15
                      A                      A                      A
 Frequencies --    337.9499               354.8514               391.4427
 Red. masses --      2.5754                 1.1565                 2.3584
 Frc consts  --      0.1733                 0.0858                 0.2129
 IR Inten    --      2.1697                27.4914                 1.5590

                     16                     17                     18
                      A                      A                      A
 Frequencies --    450.8731               487.2574               547.3155
 Red. masses --      2.4258                 3.2895                 2.5658
 Frc consts  --      0.2905                 0.4602                 0.4528
 IR Inten    --      2.4790                 1.6961                 1.2826

                     19                     20                     21
                      A                      A                      A
 Frequencies --    752.5145               781.2337               793.6369
 Red. masses --      1.1318                 1.2854                 1.6537
 Frc consts  --      0.3776                 0.4622                 0.6137
 IR Inten    --      1.7927                84.7528                76.8610

                     22                     23                     24
                      A                      A                      A
 Frequencies --    845.2150               866.6865               914.8190
 Red. masses --      2.1136                 1.4174                 1.3471
 Frc consts  --      0.8896                 0.6273                 0.6642
 IR Inten    --      4.5424                 5.2812                 3.2702

                     25                     26                     27
                      A                      A                      A
 Frequencies --    951.6162               959.0303               988.2136
 Red. masses --      1.7866                 1.4701                 1.9986
 Frc consts  --      0.9532                 0.7966                 1.1499
 IR Inten    --      4.2924                56.3336                16.5625

                     28                     29                     30
                      A                      A                      A
 Frequencies --   1014.0460              1038.5849              1056.1964
 Red. masses --      1.3656                 3.0099                 2.4666
 Frc consts  --      0.8274                 1.9129                 1.6212
 IR Inten    --     18.8522                 4.4000                 0.5934

                     31                     32                     33
                      A                      A                      A
 Frequencies --   1087.1119              1110.1294              1127.6851
 Red. masses --      2.3748                 1.4254                 2.0509
 Frc consts  --      1.6536                 1.0350                 1.5367
 IR Inten    --      1.1724                 4.7453                 5.7161

                     34                     35                     36
                      A                      A                      A
 Frequencies --   1149.5228              1156.2489              1175.6874
 Red. masses --      2.3140                 3.5280                 1.8650
 Frc consts  --      1.8015                 2.7789                 1.5188
 IR Inten    --     16.9687                47.0538                36.6857

                     37                     38                     39
                      A                      A                      A
 Frequencies --   1191.3461              1213.4819              1222.0467
 Red. masses --      1.9454                 1.6061                 1.5508
 Frc consts  --      1.6268                 1.3934                 1.3645
 IR Inten    --      5.0493                 0.5727                 0.6290

                     40                     41                     42
                      A                      A                      A
 Frequencies --   1261.3240              1294.7071              1299.3383
 Red. masses --      1.3040                 1.2486                 1.2856
 Frc consts  --      1.2223                 1.2332                 1.2788
 IR Inten    --      4.4870                 0.1080                 5.5611

                     43                     44                     45
                      A                      A                      A
 Frequencies --   1321.9832              1325.5640              1339.1326
 Red. masses --      1.2756                 1.1123                 1.2380
 Frc consts  --      1.3134                 1.1515                 1.3080
 IR Inten    --      1.4261                 0.1941                 7.0394

                     46                     47                     48
                      A                      A                      A
 Frequencies --   1379.2927              1382.7230              1395.2403
 Red. masses --      1.2980                 1.3697                 1.4430
 Frc consts  --      1.4549                 1.5429                 1.6551
 IR Inten    --      8.0137                 4.0845                 3.4659

                     49                     50                     51
                      A                      A                      A
 Frequencies --   1406.8689              1415.7653              1459.1650
 Red. masses --      1.5140                 1.2999                 1.1717
 Frc consts  --      1.7656                 1.5351                 1.4698
 IR Inten    --     11.0996                 8.5915                 4.2338

                     52                     53                     54
                      A                      A                      A
 Frequencies --   1480.0172              1483.0251              1489.3636
 Red. masses --      1.1021                 1.1465                 1.0605
 Frc consts  --      1.4224                 1.4856                 1.3860
 IR Inten    --      0.8004                14.8131                 5.7153

                     55                     56                     57
                      A                      A                      A
 Frequencies --   1495.8172              1496.8822              1509.4681
 Red. masses --      1.0932                 1.0737                 1.1164
 Frc consts  --      1.4412                 1.4174                 1.4987
 IR Inten    --      0.3717                 1.0461                 1.1743

                     58                     59                     60
                      A                      A                      A
 Frequencies --   1511.4933              1512.6521              1520.6931
 Red. masses --      1.0940                 1.0630                 1.0850
 Frc consts  --      1.4725                 1.4331                 1.4782
 IR Inten    --     16.1720                 1.4545                 2.8847

                     61                     62                     63
                      A                      A                      A
 Frequencies --   1524.5423              1683.9499              2887.8866
 Red. masses --      1.0608                 1.0644                 1.0722
 Frc consts  --      1.4527                 1.7784                 5.2686
 IR Inten    --     14.8048                15.0018                58.1805

                     64                     65                     66
                      A                      A                      A
 Frequencies --   2893.3819              2935.1827              2999.9775
 Red. masses --      1.0727                 1.0601                 1.0598
 Frc consts  --      5.2908                 5.3812                 5.6197
 IR Inten    --     75.7733               104.1319                14.1329

                     67                     68                     69
                      A                      A                      A
 Frequencies --   3013.1242              3017.6045              3025.7882
 Red. masses --      1.0747                 1.0764                 1.0642
 Frc consts  --      5.7488                 5.7751                 5.7405
 IR Inten    --      3.5939                14.6460                41.7307

                     70                     71                     72
                      A                      A                      A
 Frequencies --   3026.4658              3027.5159              3038.5670
 Red. masses --      1.0633                 1.0779                 1.0938
 Frc consts  --      5.7381                 5.8213                 5.9499
 IR Inten    --     18.0203                16.8910                40.8527

                     73                     74                     75
                      A                      A                      A
 Frequencies --   3050.9820              3070.0467              3093.7261
 Red. masses --      1.0729                 1.1029                 1.0975
 Frc consts  --      5.8845                 6.1245                 6.1889
 IR Inten    --     42.9147                71.4685                34.9227

                     76                     77                     78
                      A                      A                      A
 Frequencies --   3099.1181              3107.1415              3371.6412
 Red. masses --      1.1009                 1.0988                 1.0566
 Frc consts  --      6.2299                 6.2500                 7.0771
 IR Inten    --     33.1257                36.4865                21.8691

                     79                     80                     81
                      A                      A                      A
 Frequencies --   3502.3920              3523.2427              3528.0028
 Red. masses --      1.0761                 1.0817                 1.0731
 Frc consts  --      7.7770                 7.9114                 7.8699
 IR Inten    --      1.8357                 0.0422                 0.2164

 - Thermochemistry -
 -------------------
 Temperature   298.150 Kelvin.  Pressure   1.00000 Atm.
 Atom     1 has atomic number  6 and mass  12.00000

 Molecular mass:   145.15790 amu.
 Principal axes and moments of inertia in atomic units:
                           1         2         3
     Eigenvalues --   413.094365240.429755496.00921
           X            1.00000  -0.00015   0.00036
           Y            0.00015   1.00000  -0.00230
           Z           -0.00036   0.00230   1.00000
 This molecule is an asymmetric top.
 Rotational symmetry number  1.
 Rotational temperatures (Kelvin)      0.20967     0.01653     0.01576
 Rotational constants (GHZ):           4.36884     0.34439     0.32837
 Zero-point vibrational energy     705771.1 (Joules/Mol)
                                  168.68335 (Kcal/Mol)
 Warning -- explicit consideration of  18 degrees of freedom as
           vibrations may cause significant error
 Vibrational temperatures:     59.75    65.54   102.33   128.05   141.08
          (Kelvin)            189.94   210.70   250.10   334.47   354.18
                              370.10   426.97   486.23   510.55   563.20
                              648.71   701.05   787.46  1082.70  1124.02
                             1141.87  1216.08  1246.97  1316.22  1369.16
                             1379.83  1421.82  1458.99  1494.29  1519.63
                             1564.11  1597.23  1622.49  1653.91  1663.58
                             1691.55  1714.08  1745.93  1758.25  1814.76
                             1862.79  1869.46  1902.04  1907.19  1926.71
                             1984.49  1989.43  2007.44  2024.17  2036.97
                             2099.41  2129.41  2133.74  2142.86  2152.15
                             2153.68  2171.79  2174.70  2176.37  2187.94
                             2193.48  2422.83  4155.02  4162.93  4223.07
                             4316.30  4335.21  4341.66  4353.43  4354.41
                             4355.92  4371.82  4389.68  4417.11  4451.18
                             4458.94  4470.48  4851.04  5039.16  5069.16
                             5076.01

 Zero-point correction=                           0.268814 (Hartree/Particle)
 Thermal correction to Energy=                    0.282196
 Thermal correction to Enthalpy=                  0.283141
 Thermal correction to Gibbs Free Energy=         0.228086
 Sum of electronic and zero-point Energies=           -442.161368
 Sum of electronic and thermal Energies=              -442.147986
 Sum of electronic and thermal Enthalpies=            -442.147042
 Sum of electronic and thermal Free Energies=         -442.202096

                     E (Thermal)             CV                S
                      KCal/Mol        Cal/Mol-Kelvin    Cal/Mol-Kelvin
 Total                  177.081             47.269            115.871
 Electronic               0.000              0.000              0.000
 Translational            0.889              2.981             40.829
 Rotational               0.889              2.981             30.854
 Vibrational            175.303             41.307             44.189
 Vibration     1          0.594              1.981              5.185
 Vibration     2          0.595              1.979              5.002
 Vibration     3          0.598              1.968              4.122
 Vibration     4          0.602              1.957              3.682
 Vibration     5          0.603              1.951              3.493
 Vibration     6          0.612              1.921              2.917
 Vibration     7          0.617              1.907              2.718
 Vibration     8          0.627              1.875              2.394
 Vibration     9          0.653              1.791              1.860
 Vibration    10          0.661              1.769              1.758
 Vibration    11          0.667              1.751              1.680
 Vibration    12          0.690              1.680              1.435
 Vibration    13          0.718              1.600              1.222
 Vibration    14          0.731              1.565              1.145
 Vibration    15          0.759              1.488              0.995
 Vibration    16          0.810              1.359              0.793
 Vibration    17          0.843              1.278              0.691
 Vibration    18          0.903              1.146              0.550

                           ! Non-Optimized Parameters !
 Normal termination of Gaussian 16 at Mon May 31 23:05:40 2021.
