 Gaussian 16, Revision A.03,
 Gaussian 16:  ES64L-G16RevA.03 25-Dec-2016

 -----------------------------
 # opt freq b3lyp/6-31g(2df,p)
 -----------------------------

 -------------------
 Title Card Required
 -------------------
 Symbolic Z-matrix:
 Charge =  0 Multiplicity = 1

 SCF Done:  E(RB3LYP) =  -416.692385050     A.U. after   13 cycles
 SCF Done:  E(RB3LYP) =  -416.700420017     A.U. after   13 cycles
 SCF Done:  E(RB3LYP) =  -416.703264467     A.U. after   14 cycles
 SCF Done:  E(RB3LYP) =  -416.706743072     A.U. after   14 cycles
 SCF Done:  E(RB3LYP) =  -416.708198597     A.U. after   14 cycles
 SCF Done:  E(RB3LYP) =  -416.708736626     A.U. after   13 cycles
 SCF Done:  E(RB3LYP) =  -416.709162861     A.U. after   11 cycles
 SCF Done:  E(RB3LYP) =  -416.708525754     A.U. after   14 cycles
 SCF Done:  E(RB3LYP) =  -416.709648895     A.U. after   11 cycles
 SCF Done:  E(RB3LYP) =  -416.709869881     A.U. after   11 cycles
 SCF Done:  E(RB3LYP) =  -416.710023302     A.U. after   10 cycles
 SCF Done:  E(RB3LYP) =  -416.710078580     A.U. after   10 cycles
 SCF Done:  E(RB3LYP) =  -416.710101969     A.U. after   10 cycles
 SCF Done:  E(RB3LYP) =  -416.710112229     A.U. after    9 cycles
 SCF Done:  E(RB3LYP) =  -416.710112821     A.U. after    8 cycles
 SCF Done:  E(RB3LYP) =  -416.710113029     A.U. after    7 cycles
 SCF Done:  E(RB3LYP) =  -416.710113045     A.U. after    6 cycles
 Optimization completed.
    -- Stationary point found.
 Normal termination of Gaussian 16 at Tue Jun  1 02:52:39 2021.

 ----------------------------------------------------------------------
 #N Geom=AllCheck Guess=TCheck SCRF=Check GenChk RB3LYP/6-31G(2df,p) Fr
 eq
 ----------------------------------------------------------------------

 Structure from the checkpoint file:  "CNCCNpCpNCtN.chk"
 -------------------
 Title Card Required
 -------------------
 Charge =  0 Multiplicity = 1

                         Standard orientation:
 ---------------------------------------------------------------------
 Center     Atomic      Atomic             Coordinates (Angstroms)
 Number     Number       Type             X           Y           Z
 ---------------------------------------------------------------------
      1          6           0       -3.873303   -0.493038   -0.211535
      2          7           0       -2.552740   -0.655333    0.383552
      3          6           0       -1.530384    0.163301   -0.252669
      4          6           0       -0.207540    0.007653    0.500597
      5          7           0        0.917640    0.644997   -0.191509
      6          6           0        0.846208    2.100424   -0.241480
      7          7           0        2.155551    0.278216    0.406878
      8          6           0        2.705683   -0.857928   -0.047854
      9          7           0        3.222176   -1.818110   -0.447049
     10          1           0       -4.577302   -1.178214    0.269177
     11          1           0       -3.905656   -0.673430   -1.300799
     12          1           0       -4.230175    0.528139   -0.035409
     13          1           0       -2.279832   -1.631815    0.328239
     14          1           0       -1.872444    1.204516   -0.211708
     15          1           0       -1.364088   -0.075510   -1.319050
     16          1           0        0.031405   -1.059507    0.569807
     17          1           0       -0.323413    0.388324    1.532132
     18          1           0       -0.041030    2.398264   -0.803741
     19          1           0        1.730095    2.479469   -0.756414
     20          1           0        0.792634    2.561704    0.761428
     21          1           0        2.197430    0.387198    1.420871
 ---------------------------------------------------------------------

 SCF Done:  E(RB3LYP) =  -416.710113045     A.U. after    1 cycles

 The electronic state is 1-A.
 Alpha  occ. eigenvalues --  -14.40655 -14.38022 -14.32314 -14.31414 -10.23657
 Alpha  occ. eigenvalues --  -10.22393 -10.22060 -10.21738 -10.20678  -1.02688
 Alpha  occ. eigenvalues --   -0.91271  -0.89643  -0.84781  -0.75537  -0.69390
 Alpha  occ. eigenvalues --   -0.65236  -0.61291  -0.59715  -0.53443  -0.50139
 Alpha  occ. eigenvalues --   -0.48799  -0.45699  -0.44380  -0.42712  -0.42015
 Alpha  occ. eigenvalues --   -0.39620  -0.38497  -0.37737  -0.36205  -0.35961
 Alpha  occ. eigenvalues --   -0.35035  -0.32381  -0.26500  -0.25317  -0.23122
 Alpha virt. eigenvalues --    0.02636   0.05770   0.07386   0.07901   0.09701
 Alpha virt. eigenvalues --    0.11386   0.13046   0.13649   0.14543   0.15002
 Alpha virt. eigenvalues --    0.15573   0.16936   0.17430   0.17965   0.18369

 Mulliken charges:
               1
     1  C   -0.311375
     2  N   -0.283894
     3  C   -0.147843
     4  C   -0.142161
     5  N   -0.079666
     6  C   -0.313647
     7  N   -0.353159
     8  C    0.356740
     9  N   -0.338945
    10  H    0.121645
    11  H    0.098059
    12  H    0.122842
    13  H    0.220566
    14  H    0.105700
    15  H    0.098297
    16  H    0.120147
    17  H    0.092348
    18  H    0.138848
    19  H    0.143566
    20  H    0.099286
    21  H    0.252646
 Sum of Mulliken charges =  -0.00000

 Dipole moment (field-independent basis, Debye):
    X=             -3.1854    Y=              2.9273    Z=              1.5513  Tot=              4.5959
 Quadrupole moment (field-independent basis, Debye-Ang):
   XX=            -65.0039   YY=            -56.9989   ZZ=            -55.5218
   XY=             11.0672   XZ=              7.9484   YZ=             -1.7149

  Exact polarizability:  97.548  -7.314  84.319  -0.512   2.690  65.991
 Approx polarizability: 115.897 -16.372 128.275  -3.366   8.677 102.716

                      1                      2                      3
                      A                      A                      A
 Frequencies --     46.6528                62.2092                89.5949
 Red. masses --      4.9167                 2.0234                 2.6848
 Frc consts  --      0.0063                 0.0046                 0.0127
 IR Inten    --      6.2236                 4.3202                 0.5343

                      4                      5                      6
                      A                      A                      A
 Frequencies --    130.5262               140.6655               177.0420
 Red. masses --      2.6825                 3.1803                 2.2612
 Frc consts  --      0.0269                 0.0371                 0.0418
 IR Inten    --      0.8866                 1.9518                 2.2049

                      7                      8                      9
                      A                      A                      A
 Frequencies --    245.5009               253.3692               318.9586
 Red. masses --      1.1314                 1.4081                 2.6477
 Frc consts  --      0.0402                 0.0533                 0.1587
 IR Inten    --      0.6679                 1.4775                 2.2281

                     10                     11                     12
                      A                      A                      A
 Frequencies --    324.6028               384.3623               440.0959
 Red. masses --      3.3765                 3.1470                 2.6117
 Frc consts  --      0.2096                 0.2739                 0.2980
 IR Inten    --      4.1563                 4.5306                 9.7206

                     13                     14                     15
                      A                      A                      A
 Frequencies --    480.7480               511.1478               597.1790
 Red. masses --      2.3271                 4.2928                 6.9349
 Frc consts  --      0.3169                 0.6608                 1.4571
 IR Inten    --     13.1017                 9.9322                28.1482

                     16                     17                     18
                      A                      A                      A
 Frequencies --    673.1954               783.0498               829.1825
 Red. masses --      2.5153                 1.2228                 1.2088
 Frc consts  --      0.6716                 0.4418                 0.4897
 IR Inten    --     47.7431                79.0710                 9.7652

                     19                     20                     21
                      A                      A                      A
 Frequencies --    895.3543               988.3957              1007.7703
 Red. masses --      3.6748                 2.1626                 2.6473
 Frc consts  --      1.7357                 1.2448                 1.5841
 IR Inten    --     47.4703                 9.2567                 4.3087

                     22                     23                     24
                      A                      A                      A
 Frequencies --   1053.5391              1085.0454              1115.6189
 Red. masses --      2.1610                 1.6311                 1.8814
 Frc consts  --      1.4132                 1.1314                 1.3796
 IR Inten    --     12.3249                 5.3398                 4.1583

                     25                     26                     27
                      A                      A                      A
 Frequencies --   1141.2819              1143.4113              1161.8034
 Red. masses --      2.2858                 1.9433                 2.3154
 Frc consts  --      1.7542                 1.4969                 1.8414
 IR Inten    --     13.5021                14.2661                21.5412

                     28                     29                     30
                      A                      A                      A
 Frequencies --   1184.6542              1244.4253              1250.6317
 Red. masses --      2.0277                 2.8625                 2.1470
 Frc consts  --      1.6767                 2.6118                 1.9786
 IR Inten    --     17.0824                 6.7199                 1.9669

                     31                     32                     33
                      A                      A                      A
 Frequencies --   1277.9070              1324.0142              1354.1061
 Red. masses --      1.3430                 1.1310                 1.3441
 Frc consts  --      1.2922                 1.1682                 1.4520
 IR Inten    --     23.6133                 3.5051                 2.9534

                     34                     35                     36
                      A                      A                      A
 Frequencies --   1418.2371              1443.8385              1460.3368
 Red. masses --      1.3831                 1.1801                 1.1717
 Frc consts  --      1.6390                 1.4495                 1.4722
 IR Inten    --      2.4207                 0.3376                 1.7613

                     37                     38                     39
                      A                      A                      A
 Frequencies --   1470.1033              1485.5587              1488.4785
 Red. masses --      1.2176                 1.0661                 1.0945
 Frc consts  --      1.5505                 1.3862                 1.4287
 IR Inten    --      1.8884                 4.0405                14.1801

                     40                     41                     42
                      A                      A                      A
 Frequencies --   1493.2918              1498.5864              1507.6283
 Red. masses --      1.1451                 1.0638                 1.1182
 Frc consts  --      1.5045                 1.4076                 1.4974
 IR Inten    --      3.2066                 3.5502                11.4836

                     43                     44                     45
                      A                      A                      A
 Frequencies --   1517.4346              1524.9135              2346.4948
 Red. masses --      1.0740                 1.0782                12.3747
 Frc consts  --      1.4571                 1.4772                40.1442
 IR Inten    --     14.1535                 1.3863               110.1883

                     46                     47                     48
                      A                      A                      A
 Frequencies --   2934.3858              2944.3472              2948.1628
 Red. masses --      1.0706                 1.0658                 1.0592
 Frc consts  --      5.4313                 5.4438                 5.4243
 IR Inten    --      2.0840                38.7723                33.8296

                     49                     50                     51
                      A                      A                      A
 Frequencies --   2950.1356              3041.6758              3055.9868
 Red. masses --      1.0634                 1.0862                 1.0756
 Frc consts  --      5.4531                 5.9209                 5.9182
 IR Inten    --    181.6047                 7.9052                37.5957

                     52                     53                     54
                      A                      A                      A
 Frequencies --   3066.1076              3099.4893              3105.5374
 Red. masses --      1.0921                 1.0721                 1.1006
 Frc consts  --      6.0493                 6.0684                 6.2538
 IR Inten    --     32.3741                19.8745                28.5620

                     55                     56                     57
                      A                      A                      A
 Frequencies --   3147.1185              3427.0767              3509.8408
 Red. masses --      1.1039                 1.0732                 1.0736
 Frc consts  --      6.4417                 7.4261                 7.7924
 IR Inten    --     13.6020                15.3167                 0.2070

 - Thermochemistry -
 -------------------
 Temperature   298.150 Kelvin.  Pressure   1.00000 Atm.
 Atom     1 has atomic number  6 and mass  12.00000

 Molecular mass:   128.10620 amu.
 Principal axes and moments of inertia in atomic units:
                           1         2         3
     Eigenvalues --   617.305492550.409903004.44864
           X            0.99962   0.02527   0.01075
           Y           -0.02516   0.99963  -0.01010
           Z           -0.01100   0.00982   0.99989
 This molecule is an asymmetric top.
 Rotational symmetry number  1.
 Warning -- assumption of classical behavior for rotation
           may cause significant error
 Rotational temperatures (Kelvin)      0.14031     0.03396     0.02883
 Rotational constants (GHZ):           2.92358     0.70763     0.60069
 Zero-point vibrational energy     476118.6 (Joules/Mol)
                                  113.79507 (Kcal/Mol)
 Warning -- explicit consideration of  15 degrees of freedom as
           vibrations may cause significant error
 Vibrational temperatures:     67.12    89.51   128.91   187.80   202.39
          (Kelvin)            254.72   353.22   364.54   458.91   467.03
                              553.01   633.20   691.69   735.43   859.21
                              968.58  1126.63  1193.01  1288.22  1422.08
                             1449.96  1515.81  1561.14  1605.13  1642.05
                             1645.11  1671.58  1704.45  1790.45  1799.38
                             1838.62  1904.96  1948.26  2040.53  2077.36
                             2101.10  2115.15  2137.39  2141.59  2148.51
                             2156.13  2169.14  2183.25  2194.01  3376.08
                             4221.93  4236.26  4241.75  4244.59  4376.29
                             4396.88  4411.44  4459.47  4468.18  4528.00
                             4930.80  5049.88

 Zero-point correction=                           0.181344 (Hartree/Particle)
 Thermal correction to Energy=                    0.192177
 Thermal correction to Enthalpy=                  0.193121
 Thermal correction to Gibbs Free Energy=         0.144198
 Sum of electronic and zero-point Energies=           -416.528769
 Sum of electronic and thermal Energies=              -416.517936
 Sum of electronic and thermal Enthalpies=            -416.516992
 Sum of electronic and thermal Free Energies=         -416.565915

                     E (Thermal)             CV                S
                      KCal/Mol        Cal/Mol-Kelvin    Cal/Mol-Kelvin
 Total                  120.593             37.714            102.969
 Electronic               0.000              0.000              0.000
 Translational            0.889              2.981             40.456
 Rotational               0.889              2.981             29.938
 Vibrational            118.816             31.753             32.575
 Vibration     1          0.595              1.979              4.954
 Vibration     2          0.597              1.972              4.386
 Vibration     3          0.602              1.957              3.669
 Vibration     4          0.612              1.923              2.938
 Vibration     5          0.615              1.913              2.795
 Vibration     6          0.628              1.871              2.359
 Vibration     7          0.660              1.770              1.763
 Vibration     8          0.665              1.757              1.707
 Vibration     9          0.705              1.637              1.315
 Vibration    10          0.709              1.626              1.287
 Vibration    11          0.753              1.504              1.022
 Vibration    12          0.800              1.383              0.826
 Vibration    13          0.837              1.293              0.708
 Vibration    14          0.866              1.225              0.631
 Vibration    15          0.955              1.038              0.455

 Optimization completed.
    -- Stationary point found.
 Normal termination of Gaussian 16 at Tue Jun  1 03:19:53 2021.
