 Gaussian 16, Revision A.03,
 Gaussian 16:  ES64L-G16RevA.03 25-Dec-2016

 -----------------------------
 # opt freq b3lyp/6-31g(2df,p)
 -----------------------------

 -------------------
 Title Card Required
 -------------------
 Symbolic Z-matrix:
 Charge =  0 Multiplicity = 1

 SCF Done:  E(RB3LYP) =  -439.979474400     A.U. after   14 cycles
 SCF Done:  E(RB3LYP) =  -440.011507505     A.U. after   13 cycles
 SCF Done:  E(RB3LYP) =  -440.014934111     A.U. after   12 cycles
 SCF Done:  E(RB3LYP) =  -440.022203223     A.U. after   12 cycles
 SCF Done:  E(RB3LYP) =  -440.023087286     A.U. after   11 cycles
 SCF Done:  E(RB3LYP) =  -440.023532250     A.U. after   11 cycles
 SCF Done:  E(RB3LYP) =  -440.023631145     A.U. after   10 cycles
 SCF Done:  E(RB3LYP) =  -440.023718332     A.U. after   11 cycles
 SCF Done:  E(RB3LYP) =  -440.023773269     A.U. after   11 cycles
 SCF Done:  E(RB3LYP) =  -440.023672538     A.U. after   10 cycles
 SCF Done:  E(RB3LYP) =  -440.023874559     A.U. after   10 cycles
 SCF Done:  E(RB3LYP) =  -440.023939859     A.U. after   10 cycles
 SCF Done:  E(RB3LYP) =  -440.024027151     A.U. after   11 cycles
 SCF Done:  E(RB3LYP) =  -440.024013719     A.U. after   10 cycles
 SCF Done:  E(RB3LYP) =  -440.024037378     A.U. after   10 cycles
 SCF Done:  E(RB3LYP) =  -440.024020872     A.U. after   10 cycles
 SCF Done:  E(RB3LYP) =  -440.024039525     A.U. after   10 cycles
 SCF Done:  E(RB3LYP) =  -440.024039549     A.U. after    7 cycles
 SCF Done:  E(RB3LYP) =  -440.024039637     A.U. after    8 cycles
 Optimization completed.
    -- Stationary point found.
 Normal termination of Gaussian 16 at Tue Jun  1 08:04:58 2021.

 ----------------------------------------------------------------------
 #N Geom=AllCheck Guess=TCheck SCRF=Check GenChk RB3LYP/6-31G(2df,p) Fr
 eq
 ----------------------------------------------------------------------

 Structure from the checkpoint file:  "CNCCpCCCtNpNC.chk"
 -------------------
 Title Card Required
 -------------------
 Charge =  0 Multiplicity = 1

                         Standard orientation:
 ---------------------------------------------------------------------
 Center     Atomic      Atomic             Coordinates (Angstroms)
 Number     Number       Type             X           Y           Z
 ---------------------------------------------------------------------
      1          6           0        2.677975    2.377971   -0.047199
      2          7           0        1.839155    1.324788    0.509588
      3          6           0        1.455937    0.318858   -0.475617
      4          6           0        0.525528   -0.761012    0.120464
      5          6           0       -0.955754   -0.519554   -0.226030
      6          6           0       -1.502683    0.821057    0.303702
      7          6           0       -2.928575    0.985256    0.028630
      8          7           0       -4.056330    1.101805   -0.194648
      9          7           0        0.927418   -2.072234   -0.395588
     10          6           0        0.345554   -3.219131    0.295119
     11          1           0        2.892060    3.123579    0.723792
     12          1           0        2.239175    2.896926   -0.918490
     13          1           0        3.633375    1.948516   -0.370143
     14          1           0        1.014882    1.738692    0.930353
     15          1           0        2.381244   -0.158115   -0.823439
     16          1           0        0.990979    0.752498   -1.382145
     17          1           0        0.636130   -0.710765    1.221807
     18          1           0       -1.568356   -1.322612    0.192683
     19          1           0       -1.075125   -0.563787   -1.313376
     20          1           0       -0.972823    1.667083   -0.148603
     21          1           0       -1.353716    0.891659    1.388422
     22          1           0        1.936960   -2.138827   -0.330509
     23          1           0       -0.708991   -3.341450    0.029744
     24          1           0        0.410960   -3.157770    1.396435
     25          1           0        0.863648   -4.126813   -0.026410
 ---------------------------------------------------------------------

 SCF Done:  E(RB3LYP) =  -440.024039637     A.U. after    1 cycles

 The electronic state is 1-A.
 Alpha  occ. eigenvalues --  -14.32515 -14.32442 -14.32169 -10.23890 -10.22301
 Alpha  occ. eigenvalues --  -10.21904 -10.21470 -10.20809 -10.20638 -10.20292
 Alpha  occ. eigenvalues --   -0.92226  -0.90046  -0.89918  -0.81365  -0.74723
 Alpha  occ. eigenvalues --   -0.68849  -0.67000  -0.63414  -0.58592  -0.52594
 Alpha  occ. eigenvalues --   -0.50812  -0.49482  -0.47339  -0.46317  -0.43818
 Alpha  occ. eigenvalues --   -0.43407  -0.42443  -0.40838  -0.40545  -0.38649
 Alpha  occ. eigenvalues --   -0.37412  -0.36485  -0.35969  -0.34797  -0.33510
 Alpha  occ. eigenvalues --   -0.32177  -0.32012  -0.23422  -0.22953
 Alpha virt. eigenvalues --    0.03384   0.03868   0.06625   0.07869   0.09229
 Alpha virt. eigenvalues --    0.10619   0.11523   0.11918   0.13549   0.14176
 Alpha virt. eigenvalues --    0.15108   0.15950   0.16711   0.17142   0.17439

 Mulliken charges:
               1
     1  C   -0.311551
     2  N   -0.283983
     3  C   -0.163059
     4  C    0.037342
     5  C   -0.172827
     6  C   -0.367657
     7  C    0.265560
     8  N   -0.302735
     9  N   -0.302548
    10  C   -0.323173
    11  H    0.120994
    12  H    0.096251
    13  H    0.124619
    14  H    0.215490
    15  H    0.099941
    16  H    0.082149
    17  H    0.062896
    18  H    0.120513
    19  H    0.128181
    20  H    0.152340
    21  H    0.151900
    22  H    0.220320
    23  H    0.130046
    24  H    0.096809
    25  H    0.122185
 Sum of Mulliken charges =  -0.00000

 Dipole moment (field-independent basis, Debye):
    X=              4.0015    Y=             -0.3911    Z=              0.8921  Tot=              4.1183
 Quadrupole moment (field-independent basis, Debye-Ang):
   XX=            -83.0017   YY=            -58.4062   ZZ=            -64.0878
   XY=              4.6022   XZ=             -3.6837   YZ=             -0.6604

  Exact polarizability: 110.716  -0.218 101.491   0.522  -0.392  75.446
 Approx polarizability: 153.625  -3.107 126.837   3.191   0.485 120.009

                      1                      2                      3
                      A                      A                      A
 Frequencies --     47.4599                55.2428                84.4173
 Red. masses --      2.3200                 3.4311                 3.4789
 Frc consts  --      0.0031                 0.0062                 0.0146
 IR Inten    --      2.3407                 4.2193                 3.0958

                      4                      5                      6
                      A                      A                      A
 Frequencies --     89.5570               108.5468               122.6173
 Red. masses --      2.2143                 2.2307                 2.3771
 Frc consts  --      0.0105                 0.0155                 0.0211
 IR Inten    --      1.8949                 0.9627                 3.6756

                      7                      8                      9
                      A                      A                      A
 Frequencies --    180.5812               237.3144               241.6259
 Red. masses --      2.5030                 2.3460                 1.5155
 Frc consts  --      0.0481                 0.0778                 0.0521
 IR Inten    --      1.9504                 0.7350                 1.4940

                     10                     11                     12
                      A                      A                      A
 Frequencies --    253.0687               289.2447               352.6102
 Red. masses --      1.2490                 3.2204                 3.3947
 Frc consts  --      0.0471                 0.1587                 0.2487
 IR Inten    --      1.8585                 1.3384                 2.4345

                     13                     14                     15
                      A                      A                      A
 Frequencies --    398.4273               422.4012               455.3569
 Red. masses --      3.3030                 2.7394                 4.4411
 Frc consts  --      0.3089                 0.2880                 0.5426
 IR Inten    --      0.7528                 0.3086                 6.7428

                     16                     17                     18
                      A                      A                      A
 Frequencies --    515.4791               568.1432               749.5374
 Red. masses --      2.5062                 3.8918                 1.2481
 Frc consts  --      0.3924                 0.7401                 0.4131
 IR Inten    --      7.9270                11.8508                59.2556

                     19                     20                     21
                      A                      A                      A
 Frequencies --    771.6036               781.6243               907.6410
 Red. masses --      1.3228                 1.3137                 3.3299
 Frc consts  --      0.4640                 0.4729                 1.6163
 IR Inten    --     67.9453                19.0733                 5.1512

                     22                     23                     24
                      A                      A                      A
 Frequencies --    939.0083               947.5040               971.6195
 Red. masses --      1.5521                 2.2868                 2.9917
 Frc consts  --      0.8063                 1.2096                 1.6640
 IR Inten    --      8.0473                 1.7223                 3.8045

                     25                     26                     27
                      A                      A                      A
 Frequencies --   1016.9980              1039.7796              1071.1931
 Red. masses --      1.9487                 3.1016                 2.4234
 Frc consts  --      1.1875                 1.9757                 1.6384
 IR Inten    --      1.8810                 2.5340                 2.7514

                     28                     29                     30
                      A                      A                      A
 Frequencies --   1097.3388              1133.5329              1145.2741
 Red. masses --      1.8272                 1.5516                 2.4636
 Frc consts  --      1.2964                 1.1746                 1.9039
 IR Inten    --      0.2971                 5.8869                15.5781

                     31                     32                     33
                      A                      A                      A
 Frequencies --   1151.3103              1172.4566              1173.5866
 Red. masses --      1.4393                 2.7078                 1.6632
 Frc consts  --      1.1240                 2.1931                 1.3497
 IR Inten    --      4.5802                59.4655                 7.7466

                     34                     35                     36
                      A                      A                      A
 Frequencies --   1202.4065              1237.0919              1275.5878
 Red. masses --      1.3874                 1.7634                 1.2876
 Frc consts  --      1.1819                 1.5900                 1.2344
 IR Inten    --      0.4414                 1.3667                 4.8558

                     37                     38                     39
                      A                      A                      A
 Frequencies --   1283.6049              1313.2475              1339.0193
 Red. masses --      1.2575                 1.1583                 1.2984
 Frc consts  --      1.2207                 1.1770                 1.3716
 IR Inten    --      9.2536                 3.7090                 8.7128

                     40                     41                     42
                      A                      A                      A
 Frequencies --   1361.8861              1388.0036              1413.5583
 Red. masses --      1.3160                 1.4306                 1.4090
 Frc consts  --      1.4381                 1.6239                 1.6588
 IR Inten    --      5.6092                20.4210                 3.0190

                     43                     44                     45
                      A                      A                      A
 Frequencies --   1460.0354              1463.1149              1470.7763
 Red. masses --      1.1676                 1.1909                 1.1100
 Frc consts  --      1.4665                 1.5020                 1.4147
 IR Inten    --      4.5672                 0.2647                 2.2602

                     46                     47                     48
                      A                      A                      A
 Frequencies --   1484.3215              1486.3490              1493.2533
 Red. masses --      1.1378                 1.0935                 1.0965
 Frc consts  --      1.4769                 1.4233                 1.4406
 IR Inten    --      4.2612                25.7654                 2.0198

                     49                     50                     51
                      A                      A                      A
 Frequencies --   1497.5337              1501.6943              1513.2416
 Red. masses --      1.0970                 1.1069                 1.0635
 Frc consts  --      1.4495                 1.4708                 1.4349
 IR Inten    --      1.5116                 1.6216                18.7511

                     52                     53                     54
                      A                      A                      A
 Frequencies --   1519.3578              1528.7963              2363.4040
 Red. masses --      1.0559                 1.0989                12.6086
 Frc consts  --      1.4361                 1.5132                41.4947
 IR Inten    --      2.1236                 8.2015                12.7289

                     55                     56                     57
                      A                      A                      A
 Frequencies --   2899.1397              2913.6556              2943.1946
 Red. masses --      1.0788                 1.0753                 1.0592
 Frc consts  --      5.3426                 5.3784                 5.4061
 IR Inten    --     25.0601                83.5990               118.2960

                     58                     59                     60
                      A                      A                      A
 Frequencies --   2944.5117              3028.6349              3031.9971
 Red. masses --      1.0596                 1.0853                 1.0588
 Frc consts  --      5.4125                 5.8656                 5.7349
 IR Inten    --     49.9889                35.1125                 6.4495

                     61                     62                     63
                      A                      A                      A
 Frequencies --   3054.3553              3057.6879              3069.0881
 Red. masses --      1.0747                 1.0604                 1.0823
 Frc consts  --      5.9072                 5.8410                 6.0065
 IR Inten    --     38.7732                 6.4543                30.1655

                     64                     65                     66
                      A                      A                      A
 Frequencies --   3071.4896              3104.9280              3105.2995
 Red. masses --      1.0907                 1.1031                 1.1006
 Frc consts  --      6.0625                 6.2656                 6.2528
 IR Inten    --     12.6402                26.7256                23.3413

                     67                     68                     69
                      A                      A                      A
 Frequencies --   3111.4959              3528.1101              3531.9512
 Red. masses --      1.1019                 1.0741                 1.0735
 Frc consts  --      6.2851                 7.8775                 7.8901
 IR Inten    --     24.5363                 0.0830                 0.2088

 - Thermochemistry -
 -------------------
 Temperature   298.150 Kelvin.  Pressure   1.00000 Atm.
 Atom     1 has atomic number  6 and mass  12.00000

 Molecular mass:   141.12660 amu.
 Principal axes and moments of inertia in atomic units:
                           1         2         3
     Eigenvalues --  1510.133542208.977833545.49452
           X            0.99611   0.08793  -0.00659
           Y           -0.08799   0.99608  -0.00958
           Z            0.00572   0.01012   0.99993
 This molecule is an asymmetric top.
 Rotational symmetry number  1.
 Warning -- assumption of classical behavior for rotation
           may cause significant error
 Rotational temperatures (Kelvin)      0.05736     0.03921     0.02443
 Rotational constants (GHZ):           1.19509     0.81700     0.50902
 Zero-point vibrational energy     583083.4 (Joules/Mol)
                                  139.36027 (Kcal/Mol)
 Warning -- explicit consideration of  17 degrees of freedom as
           vibrations may cause significant error
 Vibrational temperatures:     68.28    79.48   121.46   128.85   156.17
          (Kelvin)            176.42   259.82   341.44   347.65   364.11
                              416.16   507.33   573.25   607.74   655.16
                              741.66   817.43  1078.42  1110.17  1124.58
                             1305.89  1351.02  1363.25  1397.94  1463.23
                             1496.01  1541.21  1578.83  1630.90  1647.79
                             1656.48  1686.90  1688.53  1729.99  1779.90
                             1835.29  1846.82  1889.47  1926.55  1959.45
                             1997.03  2033.80  2100.67  2105.10  2116.12
                             2135.61  2138.52  2148.46  2154.62  2160.60
                             2177.22  2186.02  2199.60  3400.41  4171.22
                             4192.10  4234.60  4236.50  4357.53  4362.37
                             4394.54  4399.33  4415.73  4419.19  4467.30
                             4467.83  4476.75  5076.16  5081.69

 Zero-point correction=                           0.222085 (Hartree/Particle)
 Thermal correction to Energy=                    0.234456
 Thermal correction to Enthalpy=                  0.235400
 Thermal correction to Gibbs Free Energy=         0.182618
 Sum of electronic and zero-point Energies=           -439.801955
 Sum of electronic and thermal Energies=              -439.789584
 Sum of electronic and thermal Enthalpies=            -439.788640
 Sum of electronic and thermal Free Energies=         -439.841422

                     E (Thermal)             CV                S
                      KCal/Mol        Cal/Mol-Kelvin    Cal/Mol-Kelvin
 Total                  147.123             43.238            111.089
 Electronic               0.000              0.000              0.000
 Translational            0.889              2.981             40.745
 Rotational               0.889              2.981             30.848
 Vibrational            145.346             37.277             39.496
 Vibration     1          0.595              1.979              4.921
 Vibration     2          0.596              1.975              4.620
 Vibration     3          0.601              1.960              3.785
 Vibration     4          0.602              1.957              3.670
 Vibration     5          0.606              1.942              3.295
 Vibration     6          0.610              1.930              3.059
 Vibration     7          0.630              1.866              2.322
 Vibration     8          0.656              1.784              1.823
 Vibration     9          0.658              1.777              1.791
 Vibration    10          0.664              1.758              1.709
 Vibration    11          0.686              1.694              1.478
 Vibration    12          0.729              1.570              1.155
 Vibration    13          0.765              1.473              0.968
 Vibration    14          0.785              1.422              0.884
 Vibration    15          0.814              1.349              0.780
 Vibration    16          0.871              1.216              0.621
 Vibration    17          0.924              1.100              0.508

                           ! Non-Optimized Parameters !
 Normal termination of Gaussian 16 at Tue Jun  1 08:51:13 2021.
