 Gaussian 16, Revision A.03,
 Gaussian 16:  ES64L-G16RevA.03 25-Dec-2016

 -----------------------------
 # opt freq b3lyp/6-31g(2df,p)
 -----------------------------

 -------------------
 Title Card Required
 -------------------
 Symbolic Z-matrix:
 Charge =  0 Multiplicity = 1

 SCF Done:  E(RB3LYP) =  -479.324479842     A.U. after   14 cycles
 SCF Done:  E(RB3LYP) =  -479.350699288     A.U. after   12 cycles
 SCF Done:  E(RB3LYP) =  -479.352020109     A.U. after   12 cycles
 SCF Done:  E(RB3LYP) =  -479.352771461     A.U. after   12 cycles
 SCF Done:  E(RB3LYP) =  -479.353141625     A.U. after   11 cycles
 SCF Done:  E(RB3LYP) =  -479.353316488     A.U. after   11 cycles
 SCF Done:  E(RB3LYP) =  -479.353347499     A.U. after   10 cycles
 SCF Done:  E(RB3LYP) =  -479.353388681     A.U. after    9 cycles
 SCF Done:  E(RB3LYP) =  -479.353394111     A.U. after    9 cycles
 SCF Done:  E(RB3LYP) =  -479.353399522     A.U. after    8 cycles
 SCF Done:  E(RB3LYP) =  -479.353400310     A.U. after    7 cycles
 SCF Done:  E(RB3LYP) =  -479.353400632     A.U. after    7 cycles
 SCF Done:  E(RB3LYP) =  -479.353400813     A.U. after    7 cycles
 SCF Done:  E(RB3LYP) =  -479.353400979     A.U. after    8 cycles
 SCF Done:  E(RB3LYP) =  -479.353401020     A.U. after    7 cycles
 Optimization completed.
    -- Stationary point found.
 Normal termination of Gaussian 16 at Tue Jun  1 08:16:42 2021.

 ----------------------------------------------------------------------
 #N Geom=AllCheck Guess=TCheck SCRF=Check GenChk RB3LYP/6-31G(2df,p) Fr
 eq
 ----------------------------------------------------------------------

 Structure from the checkpoint file:  "CNCCpCNpCCCCtN.chk"
 -------------------
 Title Card Required
 -------------------
 Charge =  0 Multiplicity = 1

                         Standard orientation:
 ---------------------------------------------------------------------
 Center     Atomic      Atomic             Coordinates (Angstroms)
 Number     Number       Type             X           Y           Z
 ---------------------------------------------------------------------
      1          6           0       -4.267985   -1.259357   -0.210759
      2          7           0       -3.108433   -0.446097   -0.535537
      3          6           0       -1.929126   -0.807528    0.235568
      4          6           0       -0.710870    0.079092   -0.085015
      5          6           0       -0.847095    1.499953    0.493943
      6          7           0       -1.974991    2.238997   -0.093230
      7          6           0        0.580404   -0.596606    0.422028
      8          6           0        1.883234   -0.001164   -0.125469
      9          6           0        3.115249   -0.796663    0.353035
     10          6           0        4.371521   -0.245245   -0.149963
     11          7           0        5.354137    0.206855   -0.556847
     12          1           0       -5.134489   -0.910230   -0.780712
     13          1           0       -4.542031   -1.257074    0.861512
     14          1           0       -4.083444   -2.303133   -0.494835
     15          1           0       -3.301059    0.538678   -0.373574
     16          1           0       -1.679974   -1.850563   -0.006662
     17          1           0       -2.104015   -0.786980    1.332574
     18          1           0       -0.650987    0.155468   -1.180719
     19          1           0        0.108542    2.035388    0.380044
     20          1           0       -1.031935    1.419452    1.573435
     21          1           0       -1.790617    2.422537   -1.075743
     22          1           0       -2.064984    3.145529    0.354904
     23          1           0        0.545316   -1.658256    0.146172
     24          1           0        0.600196   -0.571350    1.521135
     25          1           0        2.002429    1.041949    0.182541
     26          1           0        1.862740   -0.003204   -1.221236
     27          1           0        3.040826   -1.842239    0.031559
     28          1           0        3.156495   -0.809148    1.448701
 ---------------------------------------------------------------------

 SCF Done:  E(RB3LYP) =  -479.353401020     A.U. after    1 cycles

 The electronic state is 1-A.
 Alpha  occ. eigenvalues --  -14.32397 -14.32326 -14.29375 -10.23576 -10.21759
 Alpha  occ. eigenvalues --  -10.21480 -10.20728 -10.19860 -10.19621 -10.19314
 Alpha  occ. eigenvalues --  -10.18964  -0.89968  -0.89840  -0.87939  -0.82680
 Alpha  occ. eigenvalues --   -0.78063  -0.70742  -0.67359  -0.63799  -0.60609
 Alpha  occ. eigenvalues --   -0.57606  -0.51586  -0.49925  -0.49282  -0.48375
 Alpha  occ. eigenvalues --   -0.46345  -0.43909  -0.43447  -0.42478  -0.41371
 Alpha  occ. eigenvalues --   -0.40522  -0.38638  -0.37407  -0.36113  -0.35762
 Alpha  occ. eigenvalues --   -0.35231  -0.33995  -0.33365  -0.33077  -0.32035
 Alpha  occ. eigenvalues --   -0.31312  -0.24898  -0.20778
 Alpha virt. eigenvalues --    0.03617   0.04227   0.07153   0.07742   0.09486
 Alpha virt. eigenvalues --    0.10038   0.10547   0.11220   0.13557   0.14276
 Alpha virt. eigenvalues --    0.15970   0.16533   0.16791   0.17124   0.17546

 Mulliken charges:
               1
     1  C   -0.306791
     2  N   -0.289941
     3  C   -0.124522
     4  C   -0.005565
     5  C   -0.155508
     6  N   -0.506817
     7  C   -0.199428
     8  C   -0.194050
     9  C   -0.341012
    10  C    0.256510
    11  N   -0.305348
    12  H    0.112212
    13  H    0.085053
    14  H    0.110745
    15  H    0.232026
    16  H    0.087748
    17  H    0.063946
    18  H    0.079006
    19  H    0.084831
    20  H    0.104399
    21  H    0.234067
    22  H    0.232095
    23  H    0.099396
    24  H    0.098211
    25  H    0.123257
    26  H    0.121758
    27  H    0.152344
    28  H    0.151378
 Sum of Mulliken charges =  -0.00000

 Dipole moment (field-independent basis, Debye):
    X=             -2.9174    Y=              0.3076    Z=              1.7398  Tot=              3.4107
 Quadrupole moment (field-independent basis, Debye-Ang):
   XX=           -102.3714   YY=            -61.8459   ZZ=            -69.1815
   XY=             -8.0687   XZ=              4.7818   YZ=             -0.5155

  Exact polarizability: 138.224   5.249  98.225  -2.505  -2.219  86.530
 Approx polarizability: 165.008   9.871 141.578  -7.670  -4.686 138.963

                      1                      2                      3
                      A                      A                      A
 Frequencies --     27.6152                54.1740                67.2067
 Red. masses --      2.9628                 2.7492                 3.5942
 Frc consts  --      0.0013                 0.0048                 0.0096
 IR Inten    --      6.0226                 1.3900                 2.4255

                      4                      5                      6
                      A                      A                      A
 Frequencies --     92.3356               110.4235               120.5940
 Red. masses --      2.4059                 2.8306                 1.7669
 Frc consts  --      0.0121                 0.0203                 0.0151
 IR Inten    --      3.6898                 1.7501                 7.7980

                      7                      8                      9
                      A                      A                      A
 Frequencies --    153.8724               160.3650               242.8127
 Red. masses --      2.6118                 3.6135                 2.2019
 Frc consts  --      0.0364                 0.0548                 0.0765
 IR Inten    --      0.4557                 3.2509                 2.0172

                     10                     11                     12
                      A                      A                      A
 Frequencies --    251.1234               259.2543               269.7937
 Red. masses --      1.4236                 3.3312                 1.6641
 Frc consts  --      0.0529                 0.1319                 0.0714
 IR Inten    --      4.6465                 0.7944                 7.8359

                     13                     14                     15
                      A                      A                      A
 Frequencies --    309.1155               355.0486               399.2937
 Red. masses --      2.3699                 3.3594                 3.2502
 Frc consts  --      0.1334                 0.2495                 0.3053
 IR Inten    --     14.5309                 1.7257                 0.5797

                     16                     17                     18
                      A                      A                      A
 Frequencies --    405.2517               462.2125               561.5748
 Red. masses --      2.5086                 2.5796                 4.5649
 Frc consts  --      0.2427                 0.3247                 0.8482
 IR Inten    --      8.7239                 3.0699                 5.3224

                     19                     20                     21
                      A                      A                      A
 Frequencies --    569.5722               735.2678               808.8260
 Red. masses --      3.3311                 1.1361                 1.6497
 Frc consts  --      0.6367                 0.3619                 0.6359
 IR Inten    --      0.9308                 3.5925                13.2156

                     22                     23                     24
                      A                      A                      A
 Frequencies --    836.0842               878.1759               885.5617
 Red. masses --      1.3391                 1.3610                 1.6595
 Frc consts  --      0.5515                 0.6184                 0.7668
 IR Inten    --     58.6539                72.4411                12.6390

                     25                     26                     27
                      A                      A                      A
 Frequencies --    934.8234               938.7107               991.2318
 Red. masses --      2.1449                 2.5423                 1.6962
 Frc consts  --      1.1044                 1.3199                 0.9819
 IR Inten    --     19.0953                14.3054                 7.5811

                     28                     29                     30
                      A                      A                      A
 Frequencies --    998.3048              1017.4339              1051.0813
 Red. masses --      1.8054                 3.8086                 2.5363
 Frc consts  --      1.0601                 2.3229                 1.6509
 IR Inten    --      3.0515                 1.4503                 2.2174

                     31                     32                     33
                      A                      A                      A
 Frequencies --   1067.0154              1073.6035              1097.9501
 Red. masses --      3.2859                 1.3302                 2.3924
 Frc consts  --      2.2042                 0.9034                 1.6992
 IR Inten    --      4.4514                 4.3414                11.5920

                     34                     35                     36
                      A                      A                      A
 Frequencies --   1117.6629              1148.6634              1156.6282
 Red. masses --      1.7345                 1.3397                 2.1608
 Frc consts  --      1.2766                 1.0414                 1.7031
 IR Inten    --      3.1392                 0.8845                20.4908

                     37                     38                     39
                      A                      A                      A
 Frequencies --   1167.0775              1204.0474              1234.0994
 Red. masses --      1.9458                 1.6247                 1.5141
 Frc consts  --      1.5615                 1.3877                 1.3587
 IR Inten    --     26.9193                 3.5774                 3.4623

                     40                     41                     42
                      A                      A                      A
 Frequencies --   1254.0650              1286.3385              1307.9867
 Red. masses --      1.3486                 1.3319                 1.2545
 Frc consts  --      1.2496                 1.2985                 1.2646
 IR Inten    --      0.6271                 1.2728                 0.2175

                     43                     44                     45
                      A                      A                      A
 Frequencies --   1311.8291              1327.9974              1337.6566
 Red. masses --      1.2183                 1.1202                 1.1601
 Frc consts  --      1.2353                 1.1639                 1.2230
 IR Inten    --      8.0935                 2.8260                 1.3469

                     46                     47                     48
                      A                      A                      A
 Frequencies --   1364.5741              1377.6997              1393.3315
 Red. masses --      1.3949                 1.3097                 1.3937
 Frc consts  --      1.5304                 1.4647                 1.5942
 IR Inten    --      2.5521                 1.8450                 4.4522

                     49                     50                     51
                      A                      A                      A
 Frequencies --   1401.7912              1436.7051              1459.4539
 Red. masses --      1.4998                 1.3951                 1.1882
 Frc consts  --      1.7364                 1.6967                 1.4912
 IR Inten    --      1.1054                10.7812                 3.8281

                     52                     53                     54
                      A                      A                      A
 Frequencies --   1468.3922              1482.9656              1487.1913
 Red. masses --      1.0835                 1.0799                 1.0586
 Frc consts  --      1.3764                 1.3993                 1.3795
 IR Inten    --      1.8719                 1.3466                14.6511

                     55                     56                     57
                      A                      A                      A
 Frequencies --   1498.8653              1504.3043              1510.3598
 Red. masses --      1.1133                 1.0958                 1.0793
 Frc consts  --      1.4737                 1.4611                 1.4506
 IR Inten    --      3.6601                 4.4498                 2.6861

                     58                     59                     60
                      A                      A                      A
 Frequencies --   1520.0047              1527.8631              1653.9937
 Red. masses --      1.0740                 1.1359                 1.0879
 Frc consts  --      1.4620                 1.5623                 1.7534
 IR Inten    --      0.6522                49.1074                26.3127

                     61                     62                     63
                      A                      A                      A
 Frequencies --   2362.4451              2871.7118              2923.3840
 Red. masses --     12.6097                 1.0728                 1.0613
 Frc consts  --     41.4646                 5.2125                 5.3440
 IR Inten    --     13.0493                65.5189               116.3822

                     64                     65                     66
                      A                      A                      A
 Frequencies --   2969.9894              2997.9394              3007.1503
 Red. masses --      1.0685                 1.0749                 1.0721
 Frc consts  --      5.5529                 5.6921                 5.7121
 IR Inten    --     84.2538                 2.5052                17.3358

                     67                     68                     69
                      A                      A                      A
 Frequencies --   3008.6344              3035.1897              3036.2711
 Red. masses --      1.0794                 1.0687                 1.0813
 Frc consts  --      5.7569                 5.8004                 5.8733
 IR Inten    --     41.8742                12.5517                14.2005

                     70                     71                     72
                      A                      A                      A
 Frequencies --   3038.2848              3044.3532              3049.5100
 Red. masses --      1.0733                 1.0933                 1.0667
 Frc consts  --      5.8375                 5.9700                 5.8447
 IR Inten    --     49.8743                34.0236                43.9405

                     73                     74                     75
                      A                      A                      A
 Frequencies --   3070.1707              3093.9198              3098.2959
 Red. masses --      1.1003                 1.0987                 1.1038
 Frc consts  --      6.1108                 6.1965                 6.2429
 IR Inten    --      1.2323                34.7712                34.1602

                     76                     77                     78
                      A                      A                      A
 Frequencies --   3488.6149              3496.6173              3568.1757
 Red. masses --      1.0513                 1.0725                 1.0924
 Frc consts  --      7.5386                 7.7260                 8.1947
 IR Inten    --      6.4579                62.9828                 0.9822

 - Thermochemistry -
 -------------------
 Temperature   298.150 Kelvin.  Pressure   1.00000 Atm.
 Atom     1 has atomic number  6 and mass  12.00000

 Molecular mass:   155.14225 amu.
 Principal axes and moments of inertia in atomic units:
                           1         2         3
     Eigenvalues --   765.088465038.364885577.77689
           X            0.99999   0.00285   0.00324
           Y           -0.00282   0.99996  -0.00850
           Z           -0.00327   0.00849   0.99996
 This molecule is an asymmetric top.
 Rotational symmetry number  1.
 Warning -- assumption of classical behavior for rotation
           may cause significant error
 Rotational temperatures (Kelvin)      0.11321     0.01719     0.01553
 Rotational constants (GHZ):           2.35887     0.35820     0.32356
 Zero-point vibrational energy     659668.2 (Joules/Mol)
                                  157.66449 (Kcal/Mol)
 Warning -- explicit consideration of  19 degrees of freedom as
           vibrations may cause significant error
 Vibrational temperatures:     39.73    77.94    96.70   132.85   158.87
          (Kelvin)            173.51   221.39   230.73   349.35   361.31
                              373.01   388.17   444.75   510.84   574.49
                              583.07   665.02   807.98   819.49  1057.89
                             1163.72  1202.94  1263.50  1274.13  1345.00
                             1350.60  1426.16  1436.34  1463.86  1512.27
                             1535.20  1544.68  1579.71  1608.07  1652.67
                             1664.13  1679.16  1732.36  1775.59  1804.32
                             1850.75  1881.90  1887.43  1910.69  1924.59
                             1963.32  1982.20  2004.69  2016.86  2067.10
                             2099.83  2112.69  2133.66  2139.74  2156.53
                             2164.36  2173.07  2186.95  2198.25  2379.73
                             3399.03  4131.75  4206.10  4273.15  4313.37
                             4326.62  4328.75  4366.96  4368.52  4371.41
                             4380.15  4387.56  4417.29  4451.46  4457.76
                             5019.34  5030.85  5133.81

 Zero-point correction=                           0.251254 (Hartree/Particle)
 Thermal correction to Energy=                    0.264865
 Thermal correction to Enthalpy=                  0.265809
 Thermal correction to Gibbs Free Energy=         0.209811
 Sum of electronic and zero-point Energies=           -479.102147
 Sum of electronic and thermal Energies=              -479.088536
 Sum of electronic and thermal Enthalpies=            -479.087592
 Sum of electronic and thermal Free Energies=         -479.143590

                     E (Thermal)             CV                S
                      KCal/Mol        Cal/Mol-Kelvin    Cal/Mol-Kelvin
 Total                  166.205             48.017            117.859
 Electronic               0.000              0.000              0.000
 Translational            0.889              2.981             41.027
 Rotational               0.889              2.981             31.442
 Vibrational            164.428             42.055             45.390
 Vibration     1          0.593              1.984              5.994
 Vibration     2          0.596              1.976              4.659
 Vibration     3          0.598              1.970              4.234
 Vibration     4          0.602              1.955              3.610
 Vibration     5          0.606              1.941              3.261
 Vibration     6          0.609              1.932              3.091
 Vibration     7          0.619              1.898              2.624
 Vibration     8          0.622              1.891              2.545
 Vibration     9          0.659              1.775              1.782
 Vibration    10          0.663              1.761              1.723
 Vibration    11          0.668              1.747              1.667
 Vibration    12          0.674              1.729              1.598
 Vibration    13          0.698              1.656              1.367
 Vibration    14          0.731              1.565              1.144
 Vibration    15          0.765              1.472              0.965
 Vibration    16          0.770              1.459              0.944
 Vibration    17          0.820              1.334              0.760
 Vibration    18          0.917              1.114              0.521
 Vibration    19          0.926              1.097              0.505

 Optimization completed.
    -- Stationary point found.
 Normal termination of Gaussian 16 at Tue Jun  1 09:15:04 2021.
