 Gaussian 16, Revision A.03,
 Gaussian 16:  ES64L-G16RevA.03 25-Dec-2016

 -----------------------------
 # opt freq b3lyp/6-31g(2df,p)
 -----------------------------

 -------------------
 Title Card Required
 -------------------
 Symbolic Z-matrix:
 Charge =  0 Multiplicity = 1

 SCF Done:  E(RB3LYP) =  -323.234510080     A.U. after   12 cycles
 SCF Done:  E(RB3LYP) =  -323.239646310     A.U. after   11 cycles
 SCF Done:  E(RB3LYP) =  -323.240937365     A.U. after   10 cycles
 SCF Done:  E(RB3LYP) =  -323.241634876     A.U. after   10 cycles
 SCF Done:  E(RB3LYP) =  -323.241927911     A.U. after   10 cycles
 SCF Done:  E(RB3LYP) =  -323.242007101     A.U. after    9 cycles
 SCF Done:  E(RB3LYP) =  -323.242016306     A.U. after    8 cycles
 SCF Done:  E(RB3LYP) =  -323.242017862     A.U. after    7 cycles
 Optimization completed.
    -- Stationary point found.
 Normal termination of Gaussian 16 at Tue Jun  1 17:44:06 2021.

 ----------------------------------------------------------------------
 #N Geom=AllCheck Guess=TCheck SCRF=Check GenChk RB3LYP/6-31G(2df,p) Fr
 eq
 ----------------------------------------------------------------------

 Structure from the checkpoint file:  "CNCC1NN1C.chk"
 -------------------
 Title Card Required
 -------------------
 Charge =  0 Multiplicity = 1

                         Standard orientation:
 ---------------------------------------------------------------------
 Center     Atomic      Atomic             Coordinates (Angstroms)
 Number     Number       Type             X           Y           Z
 ---------------------------------------------------------------------
      1          6           0       -3.220628   -0.162519    0.078791
      2          7           0       -1.907546    0.162542   -0.459909
      3          6           0       -0.810631   -0.422100    0.298466
      4          6           0        0.514996   -0.049190   -0.317965
      5          7           0        1.195894    1.193671    0.025990
      6          7           0        1.682551   -0.132457    0.510739
      7          6           0        2.915620   -0.497255   -0.183094
      8          1           0       -3.993082    0.348163   -0.503349
      9          1           0       -3.355211    0.106622    1.142176
     10          1           0       -3.394468   -1.241043   -0.010812
     11          1           0       -1.793081    1.170466   -0.495916
     12          1           0       -0.922015   -1.514914    0.269466
     13          1           0       -0.795773   -0.137643    1.367974
     14          1           0        0.609706   -0.309215   -1.373263
     15          1           0        0.734517    1.600013    0.842924
     16          1           0        3.766247   -0.071980    0.356622
     17          1           0        2.944868   -0.141750   -1.221756
     18          1           0        3.005857   -1.588619   -0.168991
 ---------------------------------------------------------------------

 SCF Done:  E(RB3LYP) =  -323.242017862     A.U. after    1 cycles

 The electronic state is 1-A.
 Alpha  occ. eigenvalues --  -14.35200 -14.34666 -14.31756 -10.23568 -10.21029
 Alpha  occ. eigenvalues --  -10.20275 -10.19971  -1.02528  -0.90369  -0.77680
 Alpha  occ. eigenvalues --   -0.72770  -0.65757  -0.62783  -0.58694  -0.51018
 Alpha  occ. eigenvalues --   -0.48412  -0.45892  -0.43951  -0.43719  -0.41070
 Alpha  occ. eigenvalues --   -0.39996  -0.39144  -0.37078  -0.34159  -0.32539
 Alpha  occ. eigenvalues --   -0.27536  -0.24350  -0.22620
 Alpha virt. eigenvalues --    0.07380   0.09874   0.10683   0.11551   0.12336
 Alpha virt. eigenvalues --    0.13877   0.14784   0.15684   0.16208   0.17637
 Alpha virt. eigenvalues --    0.17836   0.18232   0.19126   0.21573   0.22906

 Mulliken charges:
               1
     1  C   -0.306740
     2  N   -0.283033
     3  C   -0.157962
     4  C    0.029884
     5  N   -0.327396
     6  N   -0.114949
     7  C   -0.287772
     8  H    0.119762
     9  H    0.094128
    10  H    0.123354
    11  H    0.219188
    12  H    0.110421
    13  H    0.082007
    14  H    0.097645
    15  H    0.237073
    16  H    0.126804
    17  H    0.117451
    18  H    0.120137
 Sum of Mulliken charges =  -0.00000

 Dipole moment (field-independent basis, Debye):
    X=             -0.9724    Y=             -0.2743    Z=              0.3706  Tot=              1.0762
 Quadrupole moment (field-independent basis, Debye-Ang):
   XX=            -41.6899   YY=            -42.9460   ZZ=            -46.1343
   XY=             -3.3078   XZ=             -2.1934   YZ=              2.0374

  Exact polarizability:  84.153  -1.742  59.678  -0.014   1.269  54.880
 Approx polarizability:  96.371  -1.858  93.273   2.838   0.814  84.527

                      1                      2                      3
                      A                      A                      A
 Frequencies --     74.1980               110.7326               133.0450
 Red. masses --      2.8569                 1.9895                 2.9449
 Frc consts  --      0.0093                 0.0144                 0.0307
 IR Inten    --      1.6526                 2.1711                 0.5778

                      4                      5                      6
                      A                      A                      A
 Frequencies --    214.3662               243.8554               284.3446
 Red. masses --      1.1426                 1.2427                 2.1906
 Frc consts  --      0.0309                 0.0435                 0.1044
 IR Inten    --      0.2763                 0.5183                 3.3860

                      7                      8                      9
                      A                      A                      A
 Frequencies --    327.5614               384.8589               474.4476
 Red. masses --      2.9000                 3.5036                 3.2794
 Frc consts  --      0.1833                 0.3058                 0.4349
 IR Inten    --      0.8052                 1.1327                11.7450

                     10                     11                     12
                      A                      A                      A
 Frequencies --    533.3318               735.1440               778.7148
 Red. masses --      2.4432                 4.4753                 1.3064
 Frc consts  --      0.4095                 1.4250                 0.4667
 IR Inten    --     10.9239                11.1182                78.3309

                     13                     14                     15
                      A                      A                      A
 Frequencies --    858.9552               934.2897               987.3419
 Red. masses --      4.9199                 2.3514                 1.8273
 Frc consts  --      2.1387                 1.2093                 1.0495
 IR Inten    --     21.5108                14.2736                 2.7705

                     16                     17                     18
                      A                      A                      A
 Frequencies --   1012.7758              1071.9276              1098.2977
 Red. masses --      1.6772                 2.3319                 1.4393
 Frc consts  --      1.0136                 1.5787                 1.0229
 IR Inten    --     14.0137                 4.5886                 1.3165

                     19                     20                     21
                      A                      A                      A
 Frequencies --   1136.3103              1147.9508              1167.1765
 Red. masses --      1.5482                 1.3509                 2.4966
 Frc consts  --      1.1778                 1.0489                 2.0039
 IR Inten    --      7.9374                11.4697                33.6239

                     22                     23                     24
                      A                      A                      A
 Frequencies --   1182.1260              1197.3142              1234.9433
 Red. masses --      1.5272                 1.3733                 1.6533
 Frc consts  --      1.2574                 1.1600                 1.4855
 IR Inten    --      6.6451                13.1266                 9.1997

                     25                     26                     27
                      A                      A                      A
 Frequencies --   1262.6400              1291.0253              1334.7727
 Red. masses --      1.7709                 1.4005                 1.3247
 Frc consts  --      1.6634                 1.3753                 1.3905
 IR Inten    --     30.1414                13.0202                23.9720

                     28                     29                     30
                      A                      A                      A
 Frequencies --   1364.5713              1435.2434              1454.0590
 Red. masses --      1.5067                 1.3192                 1.4140
 Frc consts  --      1.6530                 1.6011                 1.7614
 IR Inten    --     21.1935                10.5899                 1.5382

                     31                     32                     33
                      A                      A                      A
 Frequencies --   1463.0158              1480.8563              1486.0657
 Red. masses --      1.3536                 1.0614                 1.1128
 Frc consts  --      1.7070                 1.3713                 1.4480
 IR Inten    --      6.0624                 2.5277                18.4540

                     34                     35                     36
                      A                      A                      A
 Frequencies --   1493.1931              1501.3529              1507.6805
 Red. masses --      1.1570                 1.0546                 1.0884
 Frc consts  --      1.5199                 1.4006                 1.4576
 IR Inten    --      0.6437                 6.3513                 8.4558

                     37                     38                     39
                      A                      A                      A
 Frequencies --   1519.2212              2922.9769              2941.8227
 Red. masses --      1.0598                 1.0714                 1.0597
 Frc consts  --      1.4411                 5.3932                 5.4035
 IR Inten    --     10.4151                50.4440               100.8404

                     40                     41                     42
                      A                      A                      A
 Frequencies --   3007.0523              3026.2344              3054.1008
 Red. masses --      1.0387                 1.0868                 1.0743
 Frc consts  --      5.5339                 5.8641                 5.9040
 IR Inten    --     43.6921                24.3520                37.6097

                     43                     44                     45
                      A                      A                      A
 Frequencies --   3085.7991              3104.1414              3105.5607
 Red. masses --      1.0960                 1.1001                 1.0881
 Frc consts  --      6.1490                 6.2456                 6.1832
 IR Inten    --     28.2407                26.2902                22.7385

                     46                     47                     48
                      A                      A                      A
 Frequencies --   3111.9022              3424.1299              3514.7120
 Red. masses --      1.1023                 1.0759                 1.0737
 Frc consts  --      6.2891                 7.4326                 7.8146
 IR Inten    --     25.2152                 0.8302                 0.0966

 - Thermochemistry -
 -------------------
 Temperature   298.150 Kelvin.  Pressure   1.00000 Atm.
 Atom     1 has atomic number  6 and mass  12.00000

 Molecular mass:   101.09530 amu.
 Principal axes and moments of inertia in atomic units:
                           1         2         3
     Eigenvalues --   192.793601579.469821648.55596
           X            0.99990  -0.00582  -0.01302
           Y            0.00649   0.99866   0.05143
           Z            0.01271  -0.05150   0.99859
 This molecule is an asymmetric top.
 Rotational symmetry number  1.
 Rotational temperatures (Kelvin)      0.44926     0.05484     0.05254
 Rotational constants (GHZ):           9.36100     1.14262     1.09474
 Zero-point vibrational energy     419985.8 (Joules/Mol)
                                  100.37901 (Kcal/Mol)
 Warning -- explicit consideration of  10 degrees of freedom as
           vibrations may cause significant error
 Vibrational temperatures:    106.75   159.32   191.42   308.43   350.85
          (Kelvin)            409.11   471.29   553.73   682.62   767.35
                             1057.71  1120.40  1235.84  1344.23  1420.56
                             1457.16  1542.26  1580.21  1634.90  1651.65
                             1679.31  1700.82  1722.67  1776.81  1816.66
                             1857.50  1920.44  1963.31  2065.00  2092.07
                             2104.95  2130.62  2138.12  2148.37  2160.11
                             2169.22  2185.82  4205.51  4232.63  4326.48
                             4354.08  4394.17  4439.78  4466.17  4468.21
                             4477.33  4926.56  5056.89

 Zero-point correction=                           0.159964 (Hartree/Particle)
 Thermal correction to Energy=                    0.168222
 Thermal correction to Enthalpy=                  0.169166
 Thermal correction to Gibbs Free Energy=         0.127291
 Sum of electronic and zero-point Energies=           -323.082054
 Sum of electronic and thermal Energies=              -323.073796
 Sum of electronic and thermal Enthalpies=            -323.072852
 Sum of electronic and thermal Free Energies=         -323.114727

                     E (Thermal)             CV                S
                      KCal/Mol        Cal/Mol-Kelvin    Cal/Mol-Kelvin
 Total                  105.561             29.112             88.133
 Electronic               0.000              0.000              0.000
 Translational            0.889              2.981             39.750
 Rotational               0.889              2.981             27.709
 Vibrational            103.783             23.150             20.674
 Vibration     1          0.599              1.966              4.039
 Vibration     2          0.607              1.941              3.256
 Vibration     3          0.613              1.920              2.902
 Vibration     4          0.644              1.819              2.006
 Vibration     5          0.659              1.773              1.775
 Vibration     6          0.683              1.703              1.507
 Vibration     7          0.711              1.620              1.272
 Vibration     8          0.754              1.503              1.020
 Vibration     9          0.831              1.307              0.725
 Vibration    10          0.888              1.176              0.580

                           ! Non-Optimized Parameters !
 Normal termination of Gaussian 16 at Tue Jun  1 18:01:16 2021.
