 Gaussian 16, Revision A.03,
 Gaussian 16:  ES64L-G16RevA.03 25-Dec-2016

 -----------------------------
 # opt freq b3lyp/6-31g(2df,p)
 -----------------------------

 -------------------
 Title Card Required
 -------------------
 Symbolic Z-matrix:
 Charge =  0 Multiplicity = 1

 SCF Done:  E(RB3LYP) =  -399.481898518     A.U. after   14 cycles
 SCF Done:  E(RB3LYP) =  -399.486802600     A.U. after   13 cycles
 SCF Done:  E(RB3LYP) =  -399.488467433     A.U. after   13 cycles
 SCF Done:  E(RB3LYP) =  -399.490093991     A.U. after   16 cycles
 SCF Done:  E(RB3LYP) =  -399.490618345     A.U. after   12 cycles
 SCF Done:  E(RB3LYP) =  -399.490797914     A.U. after   12 cycles
 SCF Done:  E(RB3LYP) =  -399.490806713     A.U. after   10 cycles
 SCF Done:  E(RB3LYP) =  -399.490810575     A.U. after    8 cycles
 SCF Done:  E(RB3LYP) =  -399.490811012     A.U. after    8 cycles
 SCF Done:  E(RB3LYP) =  -399.490811074     A.U. after    7 cycles
 Optimization completed.
    -- Stationary point found.
 Normal termination of Gaussian 16 at Tue Jun  1 13:59:40 2021.

 ----------------------------------------------------------------------
 #N Geom=AllCheck Guess=TCheck SCRF=Check GenChk RB3LYP/6-31G(2df,p) Fr
 eq
 ----------------------------------------------------------------------

 Structure from the checkpoint file:  "CNCCpCpNdCCtN.chk"
 -------------------
 Title Card Required
 -------------------
 Charge =  0 Multiplicity = 1

                         Standard orientation:
 ---------------------------------------------------------------------
 Center     Atomic      Atomic             Coordinates (Angstroms)
 Number     Number       Type             X           Y           Z
 ---------------------------------------------------------------------
      1          6           0       -3.588006   -1.162752    0.029041
      2          7           0       -2.613924   -0.116731   -0.262914
      3          6           0       -1.296199   -0.393896    0.289470
      4          6           0       -0.242295    0.591798   -0.251151
      5          6           0       -0.522688    2.040375    0.168743
      6          7           0        1.047146    0.200415    0.300409
      7          6           0        1.971555   -0.101144   -0.512411
      8          6           0        3.272999   -0.496478   -0.038191
      9          7           0        4.334373   -0.819288    0.289588
     10          1           0       -4.566790   -0.867842   -0.360124
     11          1           0       -3.699401   -1.392635    1.103449
     12          1           0       -3.292864   -2.088299   -0.477639
     13          1           0       -2.957859    0.762487    0.107582
     14          1           0       -1.009569   -1.406023   -0.020662
     15          1           0       -1.258927   -0.382156    1.393759
     16          1           0       -0.249649    0.527111   -1.351421
     17          1           0       -0.568589    2.125099    1.258775
     18          1           0       -1.468100    2.383320   -0.260590
     19          1           0        0.267141    2.705575   -0.191069
     20          1           0        1.859243   -0.084830   -1.604646
 ---------------------------------------------------------------------

 SCF Done:  E(RB3LYP) =  -399.490811074     A.U. after    1 cycles

 The electronic state is 1-A.
 Alpha  occ. eigenvalues --  -14.36132 -14.34484 -14.32384 -10.27472 -10.23201
 Alpha  occ. eigenvalues --  -10.23113 -10.21597 -10.20764 -10.19188  -0.96128
 Alpha  occ. eigenvalues --   -0.91310  -0.90695  -0.79349  -0.70353  -0.69733
 Alpha  occ. eigenvalues --   -0.64546  -0.59044  -0.53731  -0.51519  -0.49538
 Alpha  occ. eigenvalues --   -0.45651  -0.44171  -0.42145  -0.41254  -0.39881
 Alpha  occ. eigenvalues --   -0.38937  -0.37638  -0.37291  -0.35720  -0.34997
 Alpha  occ. eigenvalues --   -0.34374  -0.30720  -0.28644  -0.23243
 Alpha virt. eigenvalues --   -0.06909   0.02222   0.07204   0.10188   0.10276
 Alpha virt. eigenvalues --    0.10755   0.11683   0.13836   0.14760   0.15240
 Alpha virt. eigenvalues --    0.16219   0.16533   0.18279   0.18310   0.18822

 Mulliken charges:
               1
     1  C   -0.311568
     2  N   -0.290817
     3  C   -0.125505
     4  C    0.022396
     5  C   -0.395118
     6  N   -0.129116
     7  C   -0.099966
     8  C    0.267946
     9  N   -0.302622
    10  H    0.120555
    11  H    0.098632
    12  H    0.125196
    13  H    0.220119
    14  H    0.106814
    15  H    0.095806
    16  H    0.078835
    17  H    0.132599
    18  H    0.126586
    19  H    0.126388
    20  H    0.132839
 Sum of Mulliken charges =  -0.00000

 Dipole moment (field-independent basis, Debye):
    X=             -4.0595    Y=              1.1983    Z=             -1.2606  Tot=              4.4164
 Quadrupole moment (field-independent basis, Debye-Ang):
   XX=            -70.0016   YY=            -53.0459   ZZ=            -55.2365
   XY=              3.6476   XZ=             -7.4192   YZ=              0.9065

  Exact polarizability: 125.666  -8.753  72.410  -0.578   0.038  66.416
 Approx polarizability: 168.037 -20.622 102.434  -0.939   0.523 106.206

                      1                      2                      3
                      A                      A                      A
 Frequencies --     55.8778                79.5692                85.2504
 Red. masses --      4.6951                 1.9772                 2.8226
 Frc consts  --      0.0086                 0.0074                 0.0121
 IR Inten    --      0.2606                 3.5328                 5.0673

                      4                      5                      6
                      A                      A                      A
 Frequencies --    125.9847               148.0662               200.9349
 Red. masses --      3.1872                 4.2138                 2.7257
 Frc consts  --      0.0298                 0.0544                 0.0648
 IR Inten    --     12.3027                 4.0612                 2.9500

                      7                      8                      9
                      A                      A                      A
 Frequencies --    240.7629               255.2818               307.9253
 Red. masses --      1.0970                 1.3444                 3.0218
 Frc consts  --      0.0375                 0.0516                 0.1688
 IR Inten    --      0.4764                 1.8202                 1.4720

                     10                     11                     12
                      A                      A                      A
 Frequencies --    327.6338               392.5175               403.7159
 Red. masses --      3.2317                 4.1418                 3.7061
 Frc consts  --      0.2044                 0.3760                 0.3559
 IR Inten    --      0.3268                 3.8664                 2.7055

                     13                     14                     15
                      A                      A                      A
 Frequencies --    515.6717               548.5319               621.3500
 Red. masses --      2.7379                 5.7706                 5.4046
 Frc consts  --      0.4290                 1.0230                 1.2294
 IR Inten    --      3.0485                 8.9670                 0.7363

                     16                     17                     18
                      A                      A                      A
 Frequencies --    784.9633               866.6385               925.2054
 Red. masses --      1.2598                 2.4396                 1.3265
 Frc consts  --      0.4574                 1.0795                 0.6690
 IR Inten    --     74.9175                 4.6234                 5.4610

                     19                     20                     21
                      A                      A                      A
 Frequencies --    946.3418               968.4444               991.2686
 Red. masses --      2.2132                 1.5631                 2.1883
 Frc consts  --      1.1678                 0.8637                 1.2669
 IR Inten    --      3.5870                 7.1480                 8.9606

                     22                     23                     24
                      A                      A                      A
 Frequencies --   1012.4029              1079.8236              1111.0779
 Red. masses --      3.3520                 2.0274                 1.5920
 Frc consts  --      2.0242                 1.3928                 1.1579
 IR Inten    --     10.5746                 9.2157                 7.9312

                     25                     26                     27
                      A                      A                      A
 Frequencies --   1140.2283              1151.7451              1181.9304
 Red. masses --      2.0103                 3.1384                 2.0389
 Frc consts  --      1.5399                 2.4529                 1.6781
 IR Inten    --      5.9560                57.4673                18.2145

                     28                     29                     30
                      A                      A                      A
 Frequencies --   1214.2520              1283.7320              1326.2601
 Red. masses --      1.7971                 1.3373                 1.1836
 Frc consts  --      1.5612                 1.2985                 1.2267
 IR Inten    --      0.1727                15.5169                 9.8258

                     31                     32                     33
                      A                      A                      A
 Frequencies --   1361.7543              1378.3559              1394.4183
 Red. masses --      1.2882                 1.3667                 1.2753
 Frc consts  --      1.4074                 1.5299                 1.4610
 IR Inten    --      7.9647                 9.2562                 6.8400

                     34                     35                     36
                      A                      A                      A
 Frequencies --   1410.6834              1460.0370              1481.8105
 Red. masses --      1.3417                 1.1653                 1.1653
 Frc consts  --      1.5732                 1.4635                 1.5075
 IR Inten    --     13.9371                 4.0567                13.2917

                     37                     38                     39
                      A                      A                      A
 Frequencies --   1490.0446              1491.9361              1504.4634
 Red. masses --      1.0507                 1.0665                 1.0630
 Frc consts  --      1.3745                 1.3987                 1.4176
 IR Inten    --     10.8247                 0.7735                 2.5560

                     40                     41                     42
                      A                      A                      A
 Frequencies --   1511.1989              1521.0276              1704.2991
 Red. masses --      1.0978                 1.0577                 9.4748
 Frc consts  --      1.4772                 1.4417                16.2148
 IR Inten    --      5.7698                12.3514                22.2377

                     43                     44                     45
                      A                      A                      A
 Frequencies --   2349.4801              2942.2818              2950.6759
 Red. masses --     12.6472                 1.0696                 1.0595
 Frc consts  --     41.1326                 5.4556                 5.4347
 IR Inten    --      0.4008                20.1791                99.9156

                     46                     47                     48
                      A                      A                      A
 Frequencies --   2972.0752              3029.1814              3042.3811
 Red. masses --      1.0821                 1.0849                 1.0342
 Frc consts  --      5.6314                 5.8652                 5.6401
 IR Inten    --     56.7339                20.0913                16.6322

                     49                     50                     51
                      A                      A                      A
 Frequencies --   3050.4835              3058.3665              3105.3739
 Red. masses --      1.0896                 1.0752                 1.1014
 Frc consts  --      5.9740                 5.9253                 6.2576
 IR Inten    --     21.8243                37.3924                28.3736

                     52                     53                     54
                      A                      A                      A
 Frequencies --   3117.0670              3122.0518              3526.0692
 Red. masses --      1.1019                 1.1023                 1.0733
 Frc consts  --      6.3077                 6.3302                 7.8627
 IR Inten    --     20.2426                18.6969                 0.1706

 - Thermochemistry -
 -------------------
 Temperature   298.150 Kelvin.  Pressure   1.00000 Atm.
 Atom     1 has atomic number  6 and mass  12.00000

 Molecular mass:   125.09530 amu.
 Principal axes and moments of inertia in atomic units:
                           1         2         3
     Eigenvalues --   469.141502883.726653221.89806
           X            0.99984   0.01626  -0.00756
           Y           -0.01624   0.99987   0.00232
           Z            0.00760  -0.00220   0.99997
 This molecule is an asymmetric top.
 Rotational symmetry number  1.
 Warning -- assumption of classical behavior for rotation
           may cause significant error
 Rotational temperatures (Kelvin)      0.18462     0.03004     0.02688
 Rotational constants (GHZ):           3.84690     0.62584     0.56015
 Zero-point vibrational energy     444226.7 (Joules/Mol)
                                  106.17273 (Kcal/Mol)
 Warning -- explicit consideration of  14 degrees of freedom as
           vibrations may cause significant error
 Vibrational temperatures:     80.40   114.48   122.66   181.26   213.03
          (Kelvin)            289.10   346.40   367.29   443.04   471.39
                              564.75   580.86   741.94   789.22   893.98
                             1129.39  1246.90  1331.16  1361.57  1393.38
                             1426.21  1456.62  1553.63  1598.59  1640.53
                             1657.10  1700.53  1747.04  1847.00  1908.19
                             1959.26  1983.15  2006.26  2029.66  2100.67
                             2131.99  2143.84  2146.56  2164.59  2174.28
                             2188.42  2452.11  3380.38  4233.29  4245.36
                             4276.15  4358.32  4377.31  4388.97  4400.31
                             4467.94  4484.76  4491.94  5073.23

 Zero-point correction=                           0.169197 (Hartree/Particle)
 Thermal correction to Energy=                    0.179803
 Thermal correction to Enthalpy=                  0.180747
 Thermal correction to Gibbs Free Energy=         0.132549
 Sum of electronic and zero-point Energies=           -399.321614
 Sum of electronic and thermal Energies=              -399.311008
 Sum of electronic and thermal Enthalpies=            -399.310064
 Sum of electronic and thermal Free Energies=         -399.358262

                     E (Thermal)             CV                S
                      KCal/Mol        Cal/Mol-Kelvin    Cal/Mol-Kelvin
 Total                  112.828             36.707            101.440
 Electronic               0.000              0.000              0.000
 Translational            0.889              2.981             40.385
 Rotational               0.889              2.981             29.856
 Vibrational            111.051             30.745             31.199
 Vibration     1          0.596              1.975              4.598
 Vibration     2          0.600              1.963              3.901
 Vibration     3          0.601              1.959              3.766
 Vibration     4          0.611              1.927              3.006
 Vibration     5          0.617              1.905              2.697
 Vibration     6          0.638              1.839              2.125
 Vibration     7          0.658              1.778              1.797
 Vibration     8          0.666              1.754              1.694
 Vibration     9          0.698              1.659              1.373
 Vibration    10          0.711              1.620              1.272
 Vibration    11          0.760              1.486              0.991
 Vibration    12          0.769              1.462              0.949
 Vibration    13          0.871              1.215              0.620
 Vibration    14          0.904              1.143              0.547

                           ! Non-Optimized Parameters !
 Normal termination of Gaussian 16 at Tue Jun  1 14:23:33 2021.
