 Gaussian 16, Revision A.03,
 Gaussian 16:  ES64L-G16RevA.03 25-Dec-2016

 -----------------------------
 # opt freq b3lyp/6-31g(2df,p)
 -----------------------------

 -------------------
 Title Card Required
 -------------------
 Symbolic Z-matrix:
 Charge =  0 Multiplicity = 1

 SCF Done:  E(RB3LYP) =  -417.936722522     A.U. after   13 cycles
 SCF Done:  E(RB3LYP) =  -417.942501314     A.U. after   11 cycles
 SCF Done:  E(RB3LYP) =  -417.943202050     A.U. after   11 cycles
 SCF Done:  E(RB3LYP) =  -417.944128224     A.U. after   12 cycles
 SCF Done:  E(RB3LYP) =  -417.945224748     A.U. after   12 cycles
 SCF Done:  E(RB3LYP) =  -417.946333130     A.U. after   12 cycles
 SCF Done:  E(RB3LYP) =  -417.948452905     A.U. after   14 cycles
 SCF Done:  E(RB3LYP) =  -417.949320382     A.U. after   13 cycles
 SCF Done:  E(RB3LYP) =  -417.950215166     A.U. after   13 cycles
 SCF Done:  E(RB3LYP) =  -417.950752668     A.U. after   12 cycles
 SCF Done:  E(RB3LYP) =  -417.952516075     A.U. after   13 cycles
 SCF Done:  E(RB3LYP) =  -417.953033028     A.U. after   13 cycles
 SCF Done:  E(RB3LYP) =  -417.953307276     A.U. after   11 cycles
 SCF Done:  E(RB3LYP) =  -417.953407792     A.U. after   12 cycles
 SCF Done:  E(RB3LYP) =  -417.953461201     A.U. after   10 cycles
 SCF Done:  E(RB3LYP) =  -417.953469749     A.U. after    8 cycles
 SCF Done:  E(RB3LYP) =  -417.953470589     A.U. after    8 cycles
 SCF Done:  E(RB3LYP) =  -417.953470853     A.U. after    7 cycles
 SCF Done:  E(RB3LYP) =  -417.953470944     A.U. after    7 cycles
 Optimization completed.
    -- Stationary point found.
 Normal termination of Gaussian 16 at Mon May 31 18:48:50 2021.

 ----------------------------------------------------------------------
 #N Geom=AllCheck Guess=TCheck SCRF=Check GenChk RB3LYP/6-31G(2df,p) Fr
 eq
 ----------------------------------------------------------------------

 Structure from the checkpoint file:  "CNCCpNpCdNCN.chk"
 -------------------
 Title Card Required
 -------------------
 Charge =  0 Multiplicity = 1

                         Standard orientation:
 ---------------------------------------------------------------------
 Center     Atomic      Atomic             Coordinates (Angstroms)
 Number     Number       Type             X           Y           Z
 ---------------------------------------------------------------------
      1          6           0       -3.362577   -1.563360    0.114555
      2          7           0       -2.664327   -0.333089   -0.236135
      3          6           0       -1.243221   -0.369002    0.089611
      4          6           0       -0.537201    0.897068   -0.410635
      5          7           0       -1.039251    2.168036    0.133623
      6          6           0        0.957670    0.860584   -0.190587
      7          7           0        1.570899   -0.160144    0.232923
      8          6           0        3.009680   -0.079463    0.399485
      9          7           0        3.624566   -1.139283   -0.398385
     10          1           0       -4.431568   -1.451349   -0.090937
     11          1           0       -3.244882   -1.866955    1.170715
     12          1           0       -2.988228   -2.385322   -0.505820
     13          1           0       -3.095130    0.438540    0.263160
     14          1           0       -0.795011   -1.239408   -0.400694
     15          1           0       -1.044082   -0.493836    1.170965
     16          1           0       -0.694366    0.956948   -1.497663
     17          1           0       -1.093837    2.121918    1.147905
     18          1           0       -1.974155    2.355013   -0.212399
     19          1           0        1.466034    1.809697   -0.423807
     20          1           0        3.206455   -0.164775    1.483312
     21          1           0        3.420759    0.887244    0.062731
     22          1           0        3.253949   -2.032878   -0.086019
     23          1           0        4.624749   -1.158446   -0.220207
 ---------------------------------------------------------------------

 SCF Done:  E(RB3LYP) =  -417.953470944     A.U. after    1 cycles

 The electronic state is 1-A.
 Alpha  occ. eigenvalues --  -14.31652 -14.31539 -14.30983 -14.30384 -10.22685
 Alpha  occ. eigenvalues --  -10.21744 -10.21181 -10.19653 -10.19432  -0.93019
 Alpha  occ. eigenvalues --   -0.90466  -0.87534  -0.85314  -0.73009  -0.67912
 Alpha  occ. eigenvalues --   -0.63679  -0.60892  -0.54572  -0.50457  -0.49929
 Alpha  occ. eigenvalues --   -0.46839  -0.45975  -0.45513  -0.43834  -0.42417
 Alpha  occ. eigenvalues --   -0.41331  -0.39917  -0.37590  -0.36358  -0.35232
 Alpha  occ. eigenvalues --   -0.34634  -0.29792  -0.25090  -0.24416  -0.23320
 Alpha  occ. eigenvalues --   -0.21797
 Alpha virt. eigenvalues --    0.00033   0.07618   0.09911   0.11163   0.12004
 Alpha virt. eigenvalues --    0.12922   0.13333   0.15864   0.16138   0.16432
 Alpha virt. eigenvalues --    0.17412   0.17475   0.18649   0.19045   0.19250

 Mulliken charges:
               1
     1  C   -0.307163
     2  N   -0.289237
     3  C   -0.135909
     4  C   -0.060708
     5  N   -0.525875
     6  C    0.057133
     7  N   -0.152053
     8  C   -0.095908
     9  N   -0.497942
    10  H    0.113870
    11  H    0.091975
    12  H    0.123676
    13  H    0.199451
    14  H    0.117977
    15  H    0.074460
    16  H    0.107380
    17  H    0.225073
    18  H    0.235337
    19  H    0.089912
    20  H    0.086676
    21  H    0.087892
    22  H    0.229474
    23  H    0.224509
 Sum of Mulliken charges =  -0.00000

 Dipole moment (field-independent basis, Debye):
    X=             -0.3802    Y=              0.1804    Z=              1.8943  Tot=              1.9404
 Quadrupole moment (field-independent basis, Debye-Ang):
   XX=            -46.8293   YY=            -56.3051   ZZ=            -57.8110
   XY=             -2.7375   XZ=              1.0854   YZ=              0.0200

  Exact polarizability: 109.836  -4.089  86.132   2.422  -2.025  66.198
 Approx polarizability: 128.426 -10.208 125.547   5.293  -5.699 103.366

                      1                      2                      3
                      A                      A                      A
 Frequencies --     45.1616                75.3017                88.1122
 Red. masses --      2.5705                 2.8346                 2.4365
 Frc consts  --      0.0031                 0.0095                 0.0111
 IR Inten    --      0.5988                 0.1600                 3.5889

                      4                      5                      6
                      A                      A                      A
 Frequencies --    106.2510               116.2864               157.4893
 Red. masses --      2.2974                 3.8167                 2.9806
 Frc consts  --      0.0153                 0.0304                 0.0436
 IR Inten    --      3.2527                 7.0807                 0.2335

                      7                      8                      9
                      A                      A                      A
 Frequencies --    198.8151               241.7717               275.7107
 Red. masses --      1.1710                 1.4174                 1.9525
 Frc consts  --      0.0273                 0.0488                 0.0874
 IR Inten    --     41.5390                10.6491                 2.2230

                     10                     11                     12
                      A                      A                      A
 Frequencies --    318.2270               347.7615               354.8914
 Red. masses --      1.6129                 2.9614                 1.7317
 Frc consts  --      0.0962                 0.2110                 0.1285
 IR Inten    --     23.6651                 4.2873                37.5794

                     13                     14                     15
                      A                      A                      A
 Frequencies --    404.4169               496.6203               563.1591
 Red. masses --      2.8827                 2.2323                 4.1706
 Frc consts  --      0.2778                 0.3244                 0.7793
 IR Inten    --      0.3236                 3.7835                 6.5496

                     16                     17                     18
                      A                      A                      A
 Frequencies --    630.9957               798.4792               839.8449
 Red. masses --      3.2576                 1.3440                 1.5265
 Frc consts  --      0.7642                 0.5049                 0.6344
 IR Inten    --      9.9824                79.4706               141.4673

                     19                     20                     21
                      A                      A                      A
 Frequencies --    858.4666               875.0584               924.3188
 Red. masses --      1.7529                 1.4244                 1.5794
 Frc consts  --      0.7611                 0.6426                 0.7950
 IR Inten    --     57.1979               113.0256                15.7996

                     22                     23                     24
                      A                      A                      A
 Frequencies --    986.0105               994.0293               997.7333
 Red. masses --      2.1633                 1.6551                 1.9956
 Frc consts  --      1.2392                 0.9635                 1.1704
 IR Inten    --     20.8436                 6.4843                 2.6149

                     25                     26                     27
                      A                      A                      A
 Frequencies --   1080.8522              1088.5032              1112.0860
 Red. masses --      2.5038                 1.5882                 2.5766
 Frc consts  --      1.7234                 1.1087                 1.8775
 IR Inten    --     20.6706                 8.5026                18.6969

                     28                     29                     30
                      A                      A                      A
 Frequencies --   1118.1728              1149.1009              1157.7339
 Red. masses --      1.5969                 2.3063                 1.4185
 Frc consts  --      1.1764                 1.7943                 1.1202
 IR Inten    --      5.5091                14.4635                29.3922

                     31                     32                     33
                      A                      A                      A
 Frequencies --   1183.0114              1227.7268              1228.5361
 Red. masses --      2.0793                 1.3736                 1.7299
 Frc consts  --      1.7145                 1.2198                 1.5383
 IR Inten    --     25.5255                 9.4657                 4.3611

                     34                     35                     36
                      A                      A                      A
 Frequencies --   1276.9479              1307.0420              1315.8998
 Red. masses --      1.4616                 1.2346                 1.3683
 Frc consts  --      1.4042                 1.2426                 1.3959
 IR Inten    --     11.7443                11.2510                 1.6908

                     37                     38                     39
                      A                      A                      A
 Frequencies --   1363.0239              1393.9814              1406.8482
 Red. masses --      1.2210                 1.4420                 1.3980
 Frc consts  --      1.3366                 1.6509                 1.6302
 IR Inten    --     21.9547                 0.4458                 5.8127

                     40                     41                     42
                      A                      A                      A
 Frequencies --   1439.9305              1458.8505              1480.8886
 Red. masses --      1.3576                 1.1714                 1.2005
 Frc consts  --      1.6585                 1.4688                 1.5511
 IR Inten    --     67.2614                 4.2972                13.4293

                     43                     44                     45
                      A                      A                      A
 Frequencies --   1489.3886              1498.6449              1517.1233
 Red. masses --      1.0668                 1.0962                 1.0900
 Frc consts  --      1.3943                 1.4506                 1.4782
 IR Inten    --      4.7607                 3.3445                 5.3052

                     46                     47                     48
                      A                      A                      A
 Frequencies --   1517.3922              1638.5173              1653.7264
 Red. masses --      1.0540                 1.0934                 1.0966
 Frc consts  --      1.4298                 1.7296                 1.7670
 IR Inten    --      8.5399                31.4768                13.4488

                     49                     50                     51
                      A                      A                      A
 Frequencies --   1765.7729              2924.2970              2928.4877
 Red. masses --      9.2554                 1.0722                 1.0599
 Frc consts  --     17.0025                 5.4023                 5.3553
 IR Inten    --     82.3998                47.3319                79.8303

                     52                     53                     54
                      A                      A                      A
 Frequencies --   2940.7989              2968.7096              2993.1623
 Red. masses --      1.0598                 1.0999                 1.0847
 Frc consts  --      5.4003                 5.7112                 5.7257
 IR Inten    --    103.4728                54.0423                55.4604

                     55                     56                     57
                      A                      A                      A
 Frequencies --   3011.3111              3055.0487              3073.8582
 Red. masses --      1.0822                 1.0730                 1.0866
 Frc consts  --      5.7819                 5.9005                 6.0493
 IR Inten    --     25.4266                38.9454                17.3673

                     58                     59                     60
                      A                      A                      A
 Frequencies --   3100.0042              3484.1739              3485.7216
 Red. masses --      1.1019                 1.0490                 1.0495
 Frc consts  --      6.2388                 7.5026                 7.5133
 IR Inten    --     31.6627                 0.3578                 0.6604

                     61                     62                     63
                      A                      A                      A
 Frequencies --   3508.6595              3568.3794              3579.6925
 Red. masses --      1.0728                 1.0920                 1.0921
 Frc consts  --      7.7812                 8.1925                 8.2454
 IR Inten    --      1.2492                 0.2893                 0.5459

 - Thermochemistry -
 -------------------
 Temperature   298.150 Kelvin.  Pressure   1.00000 Atm.
 Atom     1 has atomic number  6 and mass  12.00000

 Molecular mass:   130.12185 amu.
 Principal axes and moments of inertia in atomic units:
                           1         2         3
     Eigenvalues --   669.278332647.351303188.33182
           X            0.99995   0.00965  -0.00060
           Y           -0.00965   0.99994  -0.00572
           Z            0.00054   0.00573   0.99998
 This molecule is an asymmetric top.
 Rotational symmetry number  1.
 Warning -- assumption of classical behavior for rotation
           may cause significant error
 Rotational temperatures (Kelvin)      0.12941     0.03272     0.02717
 Rotational constants (GHZ):           2.69655     0.68172     0.56605
 Zero-point vibrational energy     539437.6 (Joules/Mol)
                                  128.92867 (Kcal/Mol)
 Warning -- explicit consideration of  15 degrees of freedom as
           vibrations may cause significant error
 Vibrational temperatures:     64.98   108.34   126.77   152.87   167.31
          (Kelvin)            226.59   286.05   347.86   396.69   457.86
                              500.35   510.61   581.87   714.53   810.26
                              907.86  1148.83  1208.35  1235.14  1259.01
                             1329.89  1418.65  1430.19  1435.52  1555.11
                             1566.11  1600.04  1608.80  1653.30  1665.72
                             1702.09  1766.43  1767.59  1837.24  1880.54
                             1893.29  1961.09  2005.63  2024.14  2071.74
                             2098.96  2130.67  2142.90  2156.22  2182.80
                             2183.19  2357.46  2379.34  2540.55  4207.41
                             4213.44  4231.15  4271.31  4306.49  4332.60
                             4395.53  4422.60  4460.21  5012.95  5015.18
                             5048.18  5134.10  5150.38

 Zero-point correction=                           0.205461 (Hartree/Particle)
 Thermal correction to Energy=                    0.216944
 Thermal correction to Enthalpy=                  0.217888
 Thermal correction to Gibbs Free Energy=         0.167562
 Sum of electronic and zero-point Energies=           -417.748010
 Sum of electronic and thermal Energies=              -417.736527
 Sum of electronic and thermal Enthalpies=            -417.735583
 Sum of electronic and thermal Free Energies=         -417.785909

                     E (Thermal)             CV                S
                      KCal/Mol        Cal/Mol-Kelvin    Cal/Mol-Kelvin
 Total                  136.134             40.148            105.920
 Electronic               0.000              0.000              0.000
 Translational            0.889              2.981             40.503
 Rotational               0.889              2.981             30.114
 Vibrational            134.357             34.187             35.303
 Vibration     1          0.595              1.979              5.019
 Vibration     2          0.599              1.965              4.010
 Vibration     3          0.601              1.958              3.702
 Vibration     4          0.605              1.944              3.336
 Vibration     5          0.608              1.936              3.161
 Vibration     6          0.621              1.894              2.580
 Vibration     7          0.637              1.842              2.144
 Vibration     8          0.658              1.776              1.790
 Vibration     9          0.677              1.718              1.560
 Vibration    10          0.705              1.639              1.319
 Vibration    11          0.725              1.580              1.176
 Vibration    12          0.731              1.565              1.144
 Vibration    13          0.770              1.461              0.947
 Vibration    14          0.852              1.258              0.667
 Vibration    15          0.919              1.111              0.518

 Optimization completed.
    -- Stationary point found.
 Normal termination of Gaussian 16 at Mon May 31 19:26:20 2021.
