 Gaussian 16, Revision A.03,
 Gaussian 16:  ES64L-G16RevA.03 25-Dec-2016

 -----------------------------
 # opt freq b3lyp/6-31g(2df,p)
 -----------------------------

 -------------------
 Title Card Required
 -------------------
 Symbolic Z-matrix:
 Charge =  0 Multiplicity = 1

 SCF Done:  E(RB3LYP) =  -394.597409497     A.U. after   13 cycles
 SCF Done:  E(RB3LYP) =  -394.608147890     A.U. after   12 cycles
 SCF Done:  E(RB3LYP) =  -394.615902195     A.U. after   12 cycles
 SCF Done:  E(RB3LYP) =  -394.624113826     A.U. after   12 cycles
 SCF Done:  E(RB3LYP) =  -394.627824167     A.U. after   12 cycles
 SCF Done:  E(RB3LYP) =  -394.631674618     A.U. after   12 cycles
 SCF Done:  E(RB3LYP) =  -394.635108384     A.U. after   12 cycles
 SCF Done:  E(RB3LYP) =  -394.636551549     A.U. after   11 cycles
 SCF Done:  E(RB3LYP) =  -394.637185285     A.U. after   11 cycles
 SCF Done:  E(RB3LYP) =  -394.637382027     A.U. after   10 cycles
 SCF Done:  E(RB3LYP) =  -394.639242679     A.U. after   12 cycles
 SCF Done:  E(RB3LYP) =  -394.639375431     A.U. after   11 cycles
 SCF Done:  E(RB3LYP) =  -394.639479177     A.U. after   10 cycles
 SCF Done:  E(RB3LYP) =  -394.639515951     A.U. after    9 cycles
 SCF Done:  E(RB3LYP) =  -394.639540219     A.U. after    9 cycles
 SCF Done:  E(RB3LYP) =  -394.639543920     A.U. after    8 cycles
 SCF Done:  E(RB3LYP) =  -394.639545496     A.U. after    8 cycles
 SCF Done:  E(RB3LYP) =  -394.639545837     A.U. after    7 cycles
 SCF Done:  E(RB3LYP) =  -394.639545902     A.U. after    7 cycles
 Optimization completed.
    -- Stationary point found.
 Normal termination of Gaussian 16 at Tue Jun  1 15:08:15 2021.

 ----------------------------------------------------------------------
 #N Geom=AllCheck Guess=TCheck SCRF=Check GenChk RB3LYP/6-31G(2df,p) Fr
 eq
 ----------------------------------------------------------------------

 Structure from the checkpoint file:  "CNCdNNpNpCN.chk"
 -------------------
 Title Card Required
 -------------------
 Charge =  0 Multiplicity = 1

                         Standard orientation:
 ---------------------------------------------------------------------
 Center     Atomic      Atomic             Coordinates (Angstroms)
 Number     Number       Type             X           Y           Z
 ---------------------------------------------------------------------
      1          6           0        3.659657    0.058050   -0.285912
      2          7           0        2.484147   -0.561854    0.300852
      3          6           0        1.269834    0.100569    0.226178
      4          7           0        0.170154   -0.540456    0.136837
      5          7           0       -1.043059    0.139994    0.252882
      6          7           0       -1.077507    1.513806   -0.065861
      7          6           0       -2.095751   -0.595929   -0.447943
      8          7           0       -3.386108   -0.282149    0.138588
      9          1           0        4.554360   -0.481553    0.035679
     10          1           0        3.746444    1.087335    0.077213
     11          1           0        3.649780    0.088434   -1.387033
     12          1           0        2.389163   -1.551784    0.115081
     13          1           0        1.350873    1.186235    0.317979
     14          1           0       -0.462568    1.703436   -0.864152
     15          1           0       -0.731907    2.045951    0.726996
     16          1           0       -1.793398   -1.648950   -0.383932
     17          1           0       -2.131529   -0.317219   -1.514055
     18          1           0       -3.477377   -0.745235    1.037480
     19          1           0       -4.129669   -0.628172   -0.458283
 ---------------------------------------------------------------------

 SCF Done:  E(RB3LYP) =  -394.639545902     A.U. after    1 cycles

 The electronic state is 1-A.
 Alpha  occ. eigenvalues --  -14.36685 -14.33681 -14.33294 -14.32376 -14.29543
 Alpha  occ. eigenvalues --  -10.23063 -10.21739 -10.21700  -1.00890  -0.93217
 Alpha  occ. eigenvalues --   -0.86840  -0.85186  -0.75801  -0.68590  -0.61659
 Alpha  occ. eigenvalues --   -0.58476  -0.53752  -0.50171  -0.48709  -0.46915
 Alpha  occ. eigenvalues --   -0.44819  -0.43655  -0.42399  -0.41209  -0.38916
 Alpha  occ. eigenvalues --   -0.37629  -0.35083  -0.28387  -0.27407  -0.24031
 Alpha  occ. eigenvalues --   -0.22677  -0.18255
 Alpha virt. eigenvalues --    0.03681   0.08568   0.09512   0.10153   0.12146
 Alpha virt. eigenvalues --    0.13849   0.15016   0.15939   0.16161   0.17081
 Alpha virt. eigenvalues --    0.18129   0.18829   0.20773   0.21253   0.23310

 Mulliken charges:
               1
     1  C   -0.321575
     2  N   -0.282547
     3  C    0.080728
     4  N   -0.227589
     5  N   -0.036661
     6  N   -0.442898
     7  C   -0.048277
     8  N   -0.489104
     9  H    0.129903
    10  H    0.131272
    11  H    0.112718
    12  H    0.239636
    13  H    0.071287
    14  H    0.210908
    15  H    0.245761
    16  H    0.098672
    17  H    0.081971
    18  H    0.223600
    19  H    0.222195
 Sum of Mulliken charges =  -0.00000

 Dipole moment (field-independent basis, Debye):
    X=              2.1724    Y=             -0.2569    Z=             -0.9781  Tot=              2.3963
 Quadrupole moment (field-independent basis, Debye-Ang):
   XX=            -42.7333   YY=            -46.2142   ZZ=            -48.8768
   XY=              6.2713   XZ=             -0.8867   YZ=              0.9079

  Exact polarizability: 114.010   1.580  64.768   0.487   0.097  53.835
 Approx polarizability: 143.083   3.645  96.680   1.338  -0.625  81.516

                      1                      2                      3
                      A                      A                      A
 Frequencies --     67.8169                91.8412               145.0154
 Red. masses --      3.1819                 2.7633                 1.7275
 Frc consts  --      0.0086                 0.0137                 0.0214
 IR Inten    --      2.6530                 1.2277                 2.5041

                      4                      5                      6
                      A                      A                      A
 Frequencies --    153.9989               189.2202               203.0980
 Red. masses --      1.9504                 1.5829                 1.6817
 Frc consts  --      0.0273                 0.0334                 0.0409
 IR Inten    --      0.8510                24.8016                40.6781

                      7                      8                      9
                      A                      A                      A
 Frequencies --    240.5600               342.2092               360.4432
 Red. masses --      1.9038                 2.5377                 2.1513
 Frc consts  --      0.0649                 0.1751                 0.1647
 IR Inten    --      2.6835                11.7443                25.1455

                     10                     11                     12
                      A                      A                      A
 Frequencies --    378.8238               392.5567               461.8160
 Red. masses --      2.3839                 4.4039                 1.8734
 Frc consts  --      0.2016                 0.3998                 0.2354
 IR Inten    --     16.7420                 1.3526                34.9757

                     13                     14                     15
                      A                      A                      A
 Frequencies --    538.9613               648.1493               694.0793
 Red. masses --      3.2562                 3.0572                 1.4110
 Frc consts  --      0.5573                 0.7567                 0.4005
 IR Inten    --     23.4864                15.9845               115.0458

                     16                     17                     18
                      A                      A                      A
 Frequencies --    811.4846               848.4513               883.2492
 Red. masses --      1.9890                 2.2285                 1.6565
 Frc consts  --      0.7717                 0.9452                 0.7614
 IR Inten    --     66.8686               186.8581                47.3767

                     19                     20                     21
                      A                      A                      A
 Frequencies --    949.8494              1014.4305              1025.8752
 Red. masses --      1.4168                 2.1152                 1.6781
 Frc consts  --      0.7531                 1.2824                 1.0406
 IR Inten    --     23.1489                46.3213                16.4097

                     22                     23                     24
                      A                      A                      A
 Frequencies --   1069.9363              1109.1503              1150.1436
 Red. masses --      2.1892                 3.0479                 1.3167
 Frc consts  --      1.4766                 2.2092                 1.0262
 IR Inten    --      0.4170                69.9617                16.4711

                     25                     26                     27
                      A                      A                      A
 Frequencies --   1173.0806              1235.1963              1237.7026
 Red. masses --      2.4584                 1.3554                 3.0237
 Frc consts  --      1.9932                 1.2184                 2.7291
 IR Inten    --     89.5722                 1.8247                16.0400

                     28                     29                     30
                      A                      A                      A
 Frequencies --   1304.6682              1326.1347              1350.9426
 Red. masses --      1.8947                 1.4627                 1.2167
 Frc consts  --      1.9002                 1.5156                 1.3083
 IR Inten    --     86.8806                14.2088                 0.9802

                     31                     32                     33
                      A                      A                      A
 Frequencies --   1368.8273              1439.1993              1462.3605
 Red. masses --      1.3934                 1.3342                 1.1836
 Frc consts  --      1.5382                 1.6282                 1.4912
 IR Inten    --      3.6788                64.3649                10.2660

                     34                     35                     36
                      A                      A                      A
 Frequencies --   1468.2080              1491.4103              1504.1023
 Red. masses --      1.5103                 1.0627                 1.0859
 Frc consts  --      1.9181                 1.3927                 1.4474
 IR Inten    --      5.8621                23.7752                 0.3897

                     37                     38                     39
                      A                      A                      A
 Frequencies --   1520.0946              1648.8415              1669.1128
 Red. masses --      1.0760                 1.1007                 1.0981
 Frc consts  --      1.4649                 1.7632                 1.8024
 IR Inten    --     12.3515                25.6450                 8.2574

                     40                     41                     42
                      A                      A                      A
 Frequencies --   1725.1011              2966.0760              2975.7298
 Red. masses --      5.7835                 1.0648                 1.0549
 Frc consts  --     10.1408                 5.5192                 5.5036
 IR Inten    --    158.5694                64.2910               106.7954

                     43                     44                     45
                      A                      A                      A
 Frequencies --   3032.6389              3069.7925              3086.8369
 Red. masses --      1.0960                 1.0797                 1.0845
 Frc consts  --      5.9391                 5.9949                 6.0884
 IR Inten    --     42.2888                26.8264                24.6171

                     46                     47                     48
                      A                      A                      A
 Frequencies --   3113.2070              3362.2608              3499.9977
 Red. masses --      1.1017                 1.0556                 1.0492
 Frc consts  --      6.2911                 7.0312                 7.5728
 IR Inten    --     24.7461                16.2509                 0.3780

                     49                     50                     51
                      A                      A                      A
 Frequencies --   3532.5514              3579.5786              3587.0520
 Red. masses --      1.0839                 1.0742                 1.0926
 Frc consts  --      7.9692                 8.1099                 8.2830
 IR Inten    --      0.9889                11.9737                 0.2872

 - Thermochemistry -
 -------------------
 Temperature   298.150 Kelvin.  Pressure   1.00000 Atm.
 Atom     1 has atomic number  6 and mass  12.00000

 Molecular mass:   117.10145 amu.
 Principal axes and moments of inertia in atomic units:
                           1         2         3
     Eigenvalues --   272.676992212.155372386.28762
           X            0.99992   0.01221  -0.00301
           Y           -0.01217   0.99981   0.01530
           Z            0.00319  -0.01526   0.99988
 This molecule is an asymmetric top.
 Rotational symmetry number  1.
 Rotational temperatures (Kelvin)      0.31764     0.03915     0.03630
 Rotational constants (GHZ):           6.61860     0.81583     0.75630
 Zero-point vibrational energy     433657.5 (Joules/Mol)
                                  103.64662 (Kcal/Mol)
 Warning -- explicit consideration of  13 degrees of freedom as
           vibrations may cause significant error
 Vibrational temperatures:     97.57   132.14   208.64   221.57   272.25
          (Kelvin)            292.21   346.11   492.36   518.60   545.04
                              564.80   664.45   775.45   932.54   998.63
                             1167.55  1220.73  1270.80  1366.62  1459.54
                             1476.01  1539.40  1595.82  1654.80  1687.80
                             1777.17  1780.78  1877.13  1908.01  1943.71
                             1969.44  2070.69  2104.01  2112.42  2145.81
                             2164.07  2187.08  2372.32  2401.48  2482.04
                             4267.52  4281.41  4363.29  4416.75  4441.27
                             4479.21  4837.54  5035.72  5082.55  5150.22
                             5160.97

 Zero-point correction=                           0.165171 (Hartree/Particle)
 Thermal correction to Energy=                    0.175052
 Thermal correction to Enthalpy=                  0.175996
 Thermal correction to Gibbs Free Energy=         0.130411
 Sum of electronic and zero-point Energies=           -394.474375
 Sum of electronic and thermal Energies=              -394.464494
 Sum of electronic and thermal Enthalpies=            -394.463550
 Sum of electronic and thermal Free Energies=         -394.509135

                     E (Thermal)             CV                S
                      KCal/Mol        Cal/Mol-Kelvin    Cal/Mol-Kelvin
 Total                  109.847             34.987             95.942
 Electronic               0.000              0.000              0.000
 Translational            0.889              2.981             40.189
 Rotational               0.889              2.981             28.755
 Vibrational            108.069             29.025             26.997
 Vibration     1          0.598              1.970              4.216
 Vibration     2          0.602              1.955              3.620
 Vibration     3          0.616              1.908              2.737
 Vibration     4          0.620              1.898              2.622
 Vibration     5          0.633              1.855              2.235
 Vibration     6          0.639              1.835              2.105
 Vibration     7          0.658              1.778              1.799
 Vibration     8          0.721              1.591              1.202
 Vibration     9          0.735              1.554              1.120
 Vibration    10          0.749              1.515              1.044
 Vibration    11          0.760              1.486              0.990
 Vibration    12          0.820              1.335              0.761
 Vibration    13          0.894              1.164              0.568

                           ! Non-Optimized Parameters !
 Normal termination of Gaussian 16 at Tue Jun  1 15:26:49 2021.
