 Gaussian 16, Revision A.03,
 Gaussian 16:  ES64L-G16RevA.03 25-Dec-2016

 -----------------------------
 # opt freq b3lyp/6-31g(2df,p)
 -----------------------------

 -------------------
 Title Card Required
 -------------------
 Symbolic Z-matrix:
 Charge =  0 Multiplicity = 1

 SCF Done:  E(RB3LYP) =  -415.511318249     A.U. after   14 cycles
 SCF Done:  E(RB3LYP) =  -415.535473266     A.U. after   12 cycles
 SCF Done:  E(RB3LYP) =  -415.536210873     A.U. after   12 cycles
 SCF Done:  E(RB3LYP) =  -415.536599466     A.U. after   12 cycles
 SCF Done:  E(RB3LYP) =  -415.537352712     A.U. after   15 cycles
 SCF Done:  E(RB3LYP) =  -415.537978660     A.U. after   13 cycles
 SCF Done:  E(RB3LYP) =  -415.539212593     A.U. after   13 cycles
 SCF Done:  E(RB3LYP) =  -415.539573507     A.U. after   13 cycles
 SCF Done:  E(RB3LYP) =  -415.539746656     A.U. after   12 cycles
 SCF Done:  E(RB3LYP) =  -415.539831603     A.U. after   11 cycles
 SCF Done:  E(RB3LYP) =  -415.540447940     A.U. after   12 cycles
 SCF Done:  E(RB3LYP) =  -415.540884052     A.U. after   12 cycles
 SCF Done:  E(RB3LYP) =  -415.540837545     A.U. after   11 cycles
 SCF Done:  E(RB3LYP) =  -415.540905126     A.U. after   11 cycles
 SCF Done:  E(RB3LYP) =  -415.540907318     A.U. after    9 cycles
 SCF Done:  E(RB3LYP) =  -415.540909473     A.U. after    9 cycles
 SCF Done:  E(RB3LYP) =  -415.540910643     A.U. after    9 cycles
 SCF Done:  E(RB3LYP) =  -415.540910948     A.U. after    8 cycles
 SCF Done:  E(RB3LYP) =  -415.540911014     A.U. after    7 cycles
 Optimization completed.
    -- Stationary point found.
 Normal termination of Gaussian 16 at Tue Jun  1 09:18:51 2021.

 ----------------------------------------------------------------------
 #N Geom=AllCheck Guess=TCheck SCRF=Check GenChk RB3LYP/6-31G(2df,p) Fr
 eq
 ----------------------------------------------------------------------

 Structure from the checkpoint file:  "CNCdNCNCCtN.chk"
 -------------------
 Title Card Required
 -------------------
 Charge =  0 Multiplicity = 1

                         Standard orientation:
 ---------------------------------------------------------------------
 Center     Atomic      Atomic             Coordinates (Angstroms)
 Number     Number       Type             X           Y           Z
 ---------------------------------------------------------------------
      1          6           0        4.233003   -0.791807   -0.380668
      2          7           0        3.184763   -0.175295    0.403312
      3          6           0        2.001106    0.238805   -0.122245
      4          7           0        0.988806    0.533846    0.594123
      5          6           0       -0.184319    1.006357   -0.088830
      6          7           0       -1.256040    0.017663    0.071456
      7          6           0       -2.560891    0.558240   -0.282239
      8          6           0       -3.620103   -0.433205   -0.077145
      9          7           0       -4.461888   -1.203636    0.101575
     10          1           0        5.215078   -0.523166    0.020055
     11          1           0        4.179244   -0.420608   -1.407761
     12          1           0        4.160578   -1.887920   -0.412020
     13          1           0        3.174333   -0.343302    1.398705
     14          1           0        2.017544    0.327016   -1.218743
     15          1           0       -0.029578    1.162721   -1.173118
     16          1           0       -0.471777    1.986361    0.339635
     17          1           0       -1.252979   -0.288603    1.040100
     18          1           0       -2.553942    0.834385   -1.344935
     19          1           0       -2.840767    1.474730    0.271581
 ---------------------------------------------------------------------

 SCF Done:  E(RB3LYP) =  -415.540911014     A.U. after    1 cycles

 The electronic state is 1-A.
 Alpha  occ. eigenvalues --  -14.35851 -14.32585 -14.32324 -14.30086 -10.25540
 Alpha  occ. eigenvalues --  -10.25303 -10.23547 -10.23306 -10.21514  -0.96642
 Alpha  occ. eigenvalues --   -0.93083  -0.89522  -0.87114  -0.74472  -0.70870
 Alpha  occ. eigenvalues --   -0.64643  -0.61248  -0.54379  -0.50303  -0.49281
 Alpha  occ. eigenvalues --   -0.47869  -0.47090  -0.45419  -0.43919  -0.41471
 Alpha  occ. eigenvalues --   -0.40771  -0.39182  -0.35454  -0.34956  -0.32535
 Alpha  occ. eigenvalues --   -0.32014  -0.25820  -0.24071  -0.22776
 Alpha virt. eigenvalues --    0.01780   0.03980   0.04766   0.08349   0.09203
 Alpha virt. eigenvalues --    0.09433   0.11615   0.13310   0.13526   0.15119
 Alpha virt. eigenvalues --    0.16122   0.16824   0.18419   0.18618   0.20306

 Mulliken charges:
               1
     1  C   -0.324211
     2  N   -0.272299
     3  C    0.124183
     4  N   -0.272082
     5  C   -0.084685
     6  N   -0.290474
     7  C   -0.261843
     8  C    0.259748
     9  N   -0.301815
    10  H    0.135797
    11  H    0.141009
    12  H    0.129699
    13  H    0.251176
    14  H    0.087458
    15  H    0.082667
    16  H    0.080468
    17  H    0.233657
    18  H    0.152721
    19  H    0.128827
 Sum of Mulliken charges =  -0.00000

 Dipole moment (field-independent basis, Debye):
    X=              5.5398    Y=              1.9172    Z=             -0.9309  Tot=              5.9356
 Quadrupole moment (field-independent basis, Debye-Ang):
   XX=            -60.3662   YY=            -56.5216   ZZ=            -50.9936
   XY=            -14.6480   XZ=              0.4490   YZ=             -1.8803

  Exact polarizability: 124.782  -4.270  67.385  -3.558  -2.274  64.298
 Approx polarizability: 151.231   0.030 103.005  -8.754  -4.033 100.644

                      1                      2                      3
                      A                      A                      A
 Frequencies --     31.6604                74.7182                79.5733
 Red. masses --      4.6084                 2.6135                 2.4440
 Frc consts  --      0.0027                 0.0086                 0.0091
 IR Inten    --      2.4586                 2.3031                 7.0137

                      4                      5                      6
                      A                      A                      A
 Frequencies --     86.6633               120.5121               165.3126
 Red. masses --      2.0883                 2.1669                 3.4045
 Frc consts  --      0.0092                 0.0185                 0.0548
 IR Inten    --      3.3569                 3.2201                10.0272

                      7                      8                      9
                      A                      A                      A
 Frequencies --    214.8202               230.2407               304.4777
 Red. masses --      2.5666                 2.1160                 4.5842
 Frc consts  --      0.0698                 0.0661                 0.2504
 IR Inten    --      1.0414                 0.7226                 0.7175

                     10                     11                     12
                      A                      A                      A
 Frequencies --    382.3930               394.5819               474.1876
 Red. masses --      6.9004                 3.7532                 2.8097
 Frc consts  --      0.5945                 0.3443                 0.3722
 IR Inten    --      1.0228                 1.2733                16.2480

                     13                     14                     15
                      A                      A                      A
 Frequencies --    570.7641               598.7173               622.8350
 Red. masses --      5.7606                 1.5982                 2.8642
 Frc consts  --      1.1057                 0.3375                 0.6546
 IR Inten    --      1.7780                98.7885                20.4953

                     16                     17                     18
                      A                      A                      A
 Frequencies --    794.1594               941.7492               985.2012
 Red. masses --      1.2796                 4.3126                 1.6939
 Frc consts  --      0.4755                 2.2535                 0.9687
 IR Inten    --     87.9939                 3.1588                20.2940

                     19                     20                     21
                      A                      A                      A
 Frequencies --   1009.4465              1025.9890              1063.2382
 Red. masses --      1.4755                 1.7022                 3.7053
 Frc consts  --      0.8858                 1.0557                 2.4680
 IR Inten    --      8.4046                25.3255                29.9555

                     22                     23                     24
                      A                      A                      A
 Frequencies --   1082.1200              1130.6623              1143.3554
 Red. masses --      2.5210                 4.1268                 1.7815
 Frc consts  --      1.7393                 3.1083                 1.3722
 IR Inten    --     15.6738                95.5042                 4.7613

                     25                     26                     27
                      A                      A                      A
 Frequencies --   1153.1392              1190.2935              1231.1453
 Red. masses --      1.3292                 2.2830                 1.1296
 Frc consts  --      1.0414                 1.9057                 1.0088
 IR Inten    --     20.7157                32.5762                 7.6001

                     28                     29                     30
                      A                      A                      A
 Frequencies --   1279.7887              1330.8543              1351.0341
 Red. masses --      1.1794                 1.8861                 1.3002
 Frc consts  --      1.1381                 1.9682                 1.3982
 IR Inten    --      6.2427               182.8969                18.4414

                     31                     32                     33
                      A                      A                      A
 Frequencies --   1379.4879              1421.7302              1467.4302
 Red. masses --      1.2169                 1.3718                 1.1730
 Frc consts  --      1.3644                 1.6337                 1.4882
 IR Inten    --      3.0923                36.4856                52.6238

                     34                     35                     36
                      A                      A                      A
 Frequencies --   1472.4041              1486.2655              1490.0308
 Red. masses --      1.1823                 1.1550                 1.2055
 Frc consts  --      1.5102                 1.5033                 1.5769
 IR Inten    --     69.3490                19.7421                 4.7924

                     37                     38                     39
                      A                      A                      A
 Frequencies --   1493.0902              1525.8264              1531.8207
 Red. masses --      1.3017                 1.1116                 1.2252
 Frc consts  --      1.7098                 1.5248                 1.6938
 IR Inten    --      0.6763                 8.5177                 9.4041

                     40                     41                     42
                      A                      A                      A
 Frequencies --   1757.1209              2367.8163              2899.9735
 Red. masses --      5.8968                12.6231                 1.0588
 Frc consts  --     10.7268                41.6977                 5.2464
 IR Inten    --    605.8838                 5.9576                86.7157

                     43                     44                     45
                      A                      A                      A
 Frequencies --   2923.0113              2928.3458              3003.4143
 Red. masses --      1.0776                 1.0939                 1.0509
 Frc consts  --      5.4248                 5.5268                 5.5851
 IR Inten    --     80.5588                50.4015                63.2984

                     46                     47                     48
                      A                      A                      A
 Frequencies --   3013.4736              3037.6945              3076.5613
 Red. masses --      1.0821                 1.0837                 1.0885
 Frc consts  --      5.7898                 5.8921                 6.0701
 IR Inten    --     58.5929                10.1895                28.5530

                     49                     50                     51
                      A                      A                      A
 Frequencies --   3117.6534              3519.1081              3613.3505
 Red. masses --      1.1014                 1.0739                 1.0751
 Frc consts  --      6.3075                 7.8355                 8.2699
 IR Inten    --     18.3230                 3.7121                27.3253

 - Thermochemistry -
 -------------------
 Temperature   298.150 Kelvin.  Pressure   1.00000 Atm.
 Atom     1 has atomic number  6 and mass  12.00000

 Molecular mass:   126.09055 amu.
 Principal axes and moments of inertia in atomic units:
                           1         2         3
     Eigenvalues --   299.142853817.881563970.57868
           X            0.99980  -0.01976  -0.00383
           Y            0.01965   0.99942  -0.02765
           Z            0.00437   0.02757   0.99961
 This molecule is an asymmetric top.
 Rotational symmetry number  1.
 Rotational temperatures (Kelvin)      0.28954     0.02269     0.02181
 Rotational constants (GHZ):           6.03304     0.47271     0.45453
 Zero-point vibrational energy     416236.1 (Joules/Mol)
                                   99.48282 (Kcal/Mol)
 Warning -- explicit consideration of  14 degrees of freedom as
           vibrations may cause significant error
 Vibrational temperatures:     45.55   107.50   114.49   124.69   173.39
          (Kelvin)            237.85   309.08   331.27   438.08   550.18
                              567.72   682.25   821.20   861.42   896.12
                             1142.62  1354.97  1417.48  1452.37  1476.17
                             1529.76  1556.93  1626.77  1645.03  1659.11
                             1712.57  1771.34  1841.33  1914.80  1943.84
                             1984.78  2045.55  2111.30  2118.46  2138.40
                             2143.82  2148.22  2195.32  2203.95  2528.11
                             3406.76  4172.42  4205.56  4213.24  4321.24
                             4335.72  4370.56  4426.49  4485.61  5063.21
                             5198.81

 Zero-point correction=                           0.158536 (Hartree/Particle)
 Thermal correction to Energy=                    0.169181
 Thermal correction to Enthalpy=                  0.170125
 Thermal correction to Gibbs Free Energy=         0.120794
 Sum of electronic and zero-point Energies=           -415.382375
 Sum of electronic and thermal Energies=              -415.371730
 Sum of electronic and thermal Enthalpies=            -415.370786
 Sum of electronic and thermal Free Energies=         -415.420117

                     E (Thermal)             CV                S
                      KCal/Mol        Cal/Mol-Kelvin    Cal/Mol-Kelvin
 Total                  106.163             35.494            103.825
 Electronic               0.000              0.000              0.000
 Translational            0.889              2.981             40.409
 Rotational               0.889              2.981             29.896
 Vibrational            104.385             29.532             33.520
 Vibration     1          0.594              1.983              5.723
 Vibration     2          0.599              1.966              4.025
 Vibration     3          0.600              1.963              3.901
 Vibration     4          0.601              1.958              3.734
 Vibration     5          0.609              1.932              3.092
 Vibration     6          0.624              1.885              2.488
 Vibration     7          0.645              1.818              2.002
 Vibration     8          0.652              1.795              1.877
 Vibration     9          0.695              1.665              1.392
 Vibration    10          0.752              1.508              1.030
 Vibration    11          0.762              1.482              0.983
 Vibration    12          0.831              1.307              0.726
 Vibration    13          0.927              1.094              0.503
 Vibration    14          0.957              1.035              0.452

 Optimization completed.
    -- Stationary point found.
 Normal termination of Gaussian 16 at Tue Jun  1 09:47:38 2021.
