 Gaussian 16, Revision A.03,
 Gaussian 16:  ES64L-G16RevA.03 25-Dec-2016

 -----------------------------
 # opt freq b3lyp/6-31g(2df,p)
 -----------------------------

 -------------------
 Title Card Required
 -------------------
 Symbolic Z-matrix:
 Charge =  0 Multiplicity = 1

 SCF Done:  E(RB3LYP) =  -524.942459560     A.U. after   16 cycles
 SCF Done:  E(RB3LYP) =  -524.974458671     A.U. after   13 cycles
 SCF Done:  E(RB3LYP) =  -524.975425357     A.U. after   11 cycles
 SCF Done:  E(RB3LYP) =  -524.975564707     A.U. after   11 cycles
 SCF Done:  E(RB3LYP) =  -524.975584884     A.U. after   10 cycles
 SCF Done:  E(RB3LYP) =  -524.975589624     A.U. after    9 cycles
 SCF Done:  E(RB3LYP) =  -524.975590141     A.U. after    8 cycles
 Optimization completed.
    -- Stationary point found.
 Normal termination of Gaussian 16 at Tue Jun  1 02:46:47 2021.

 ----------------------------------------------------------------------
 #N Geom=AllCheck Guess=TCheck SCRF=Check GenChk RB3LYP/6-31G(2df,p) Fr
 eq
 ----------------------------------------------------------------------

 Structure from the checkpoint file:  "CNCdNNCdNNCCtN.chk"
 -------------------
 Title Card Required
 -------------------
 Charge =  0 Multiplicity = 1

                         Standard orientation:
 ---------------------------------------------------------------------
 Center     Atomic      Atomic             Coordinates (Angstroms)
 Number     Number       Type             X           Y           Z
 ---------------------------------------------------------------------
      1          6           0       -5.686292    0.108722    0.000167
      2          7           0       -4.390844   -0.527665    0.000051
      3          6           0       -3.215075    0.169602    0.000043
      4          7           0       -2.075834   -0.414694   -0.000074
      5          7           0       -0.963976    0.380634   -0.000067
      6          6           0        0.282435   -0.188551   -0.000182
      7          7           0        1.341142    0.528433   -0.000174
      8          7           0        2.547934   -0.115098   -0.000337
      9          6           0        3.715456    0.713692    0.000084
     10          6           0        4.924069   -0.113467    0.000177
     11          7           0        5.875807   -0.767709    0.000255
     12          1           0       -6.457676   -0.663654    0.000141
     13          1           0       -5.844742    0.734475   -0.889008
     14          1           0       -5.844654    0.734326    0.889463
     15          1           0       -4.327604   -1.530999   -0.000045
     16          1           0       -3.335150    1.259010    0.000145
     17          1           0       -1.039045    1.391035    0.000032
     18          1           0        0.257461   -1.280669   -0.000288
     19          1           0        2.621640   -1.120538   -0.000196
     20          1           0        3.753123    1.374692    0.882357
     21          1           0        3.753488    1.375032   -0.881915
 ---------------------------------------------------------------------

 SCF Done:  E(RB3LYP) =  -524.975590141     A.U. after    1 cycles

 The electronic state is 1-A.
 Alpha  occ. eigenvalues --  -14.37284 -14.35204 -14.35164 -14.34467 -14.33372
 Alpha  occ. eigenvalues --  -14.32871 -10.25546 -10.24794 -10.23468 -10.23088
 Alpha  occ. eigenvalues --  -10.22043  -1.01302  -0.98465  -0.93905  -0.90205
 Alpha  occ. eigenvalues --   -0.85516  -0.79994  -0.71692  -0.69092  -0.62672
 Alpha  occ. eigenvalues --   -0.61784  -0.57592  -0.54890  -0.49241  -0.49072
 Alpha  occ. eigenvalues --   -0.47224  -0.46645  -0.45420  -0.45367  -0.44559
 Alpha  occ. eigenvalues --   -0.41644  -0.40433  -0.36445  -0.35677  -0.33315
 Alpha  occ. eigenvalues --   -0.32584  -0.30236  -0.28829  -0.27615  -0.22460
 Alpha  occ. eigenvalues --   -0.15707
 Alpha virt. eigenvalues --    0.01953   0.02755   0.04167   0.05974   0.07363
 Alpha virt. eigenvalues --    0.08690   0.10197   0.11144   0.11336   0.12064
 Alpha virt. eigenvalues --    0.15039   0.15681   0.16690   0.18104   0.19461

 Mulliken charges:
               1
     1  C   -0.322181
     2  N   -0.285137
     3  C    0.117857
     4  N   -0.222087
     5  N   -0.265172
     6  C    0.147004
     7  N   -0.238914
     8  N   -0.270773
     9  C   -0.193200
    10  C    0.229954
    11  N   -0.299699
    12  H    0.137338
    13  H    0.127669
    14  H    0.127669
    15  H    0.254157
    16  H    0.086143
    17  H    0.240315
    18  H    0.098757
    19  H    0.242917
    20  H    0.143683
    21  H    0.143700
 Sum of Mulliken charges =  -0.00000

 Dipole moment (field-independent basis, Debye):
    X=             -6.9286    Y=              1.3426    Z=              0.0005  Tot=              7.0575
 Quadrupole moment (field-independent basis, Debye-Ang):
   XX=            -72.2995   YY=            -59.5865   ZZ=            -66.3138
   XY=              7.3398   XZ=             -0.0011   YZ=              0.0010

  Exact polarizability: 218.520  -2.330  81.658  -0.002   0.002  54.727
 Approx polarizability: 264.720  -6.344 129.866  -0.005   0.002  82.595

 ******    4 imaginary frequencies (negative Signs) ******

                      1                      2                      3
                      A                      A                      A
 Frequencies --   -576.5322              -210.0047               -70.0731
 Red. masses --      1.3829                 1.6714                 6.3615
 Frc consts  --      0.2708                 0.0434                 0.0184
 IR Inten    --     74.6305                12.2155                 4.3505

                      4                      5                      6
                      A                      A                      A
 Frequencies --    -10.9592                52.6187                74.6615
 Red. masses --      3.5347                 6.0077                 1.5006
 Frc consts  --      0.0003                 0.0098                 0.0049
 IR Inten    --      1.1303                 0.2693                 4.3241

                      7                      8                      9
                      A                      A                      A
 Frequencies --     94.9053               124.7964               140.3313
 Red. masses --      1.7703                 5.5696                 2.7237
 Frc consts  --      0.0094                 0.0511                 0.0316
 IR Inten    --      0.1840                 2.3180                 0.4150

                     10                     11                     12
                      A                      A                      A
 Frequencies --    213.5712               239.7921               274.6684
 Red. masses --      5.2325                 2.8023                 4.9218
 Frc consts  --      0.1406                 0.0949                 0.2188
 IR Inten    --     25.9197                10.6396                 3.9417

                     13                     14                     15
                      A                      A                      A
 Frequencies --    286.1789               346.4832               364.9189
 Red. masses --      3.2541                 1.9683                 4.8185
 Frc consts  --      0.1570                 0.1392                 0.3781
 IR Inten    --     13.8984               107.4552                 9.1330

                     16                     17                     18
                      A                      A                      A
 Frequencies --    366.2210               382.1022               460.0403
 Red. masses --      1.4764                 3.7972                 4.6675
 Frc consts  --      0.1167                 0.3266                 0.5820
 IR Inten    --     27.1776                10.5834                75.1193

                     19                     20                     21
                      A                      A                      A
 Frequencies --    534.6288               606.0297               670.4811
 Red. masses --      6.9860                 3.9765                 5.8857
 Frc consts  --      1.1765                 0.8605                 1.5589
 IR Inten    --      5.9947                 5.2148                10.1850

                     22                     23                     24
                      A                      A                      A
 Frequencies --    939.5909               943.4538               946.7419
 Red. masses --      1.4105                 1.3882                 3.7700
 Frc consts  --      0.7337                 0.7280                 1.9909
 IR Inten    --      9.6068                 9.0522                 3.8005

                     25                     26                     27
                      A                      A                      A
 Frequencies --   1024.5229              1035.6521              1084.3205
 Red. masses --      1.6130                 1.9041                 6.5607
 Frc consts  --      0.9975                 1.2033                 4.5448
 IR Inten    --      0.1609                16.2366                35.4501

                     28                     29                     30
                      A                      A                      A
 Frequencies --   1147.7632              1161.8295              1211.9422
 Red. masses --      4.0871                 1.2567                 2.9662
 Frc consts  --      3.1723                 0.9995                 2.5669
 IR Inten    --    245.1248                 0.3071               382.9577

                     31                     32                     33
                      A                      A                      A
 Frequencies --   1222.0403              1228.1031              1282.1367
 Red. masses --      2.9191                 1.0676                 1.9383
 Frc consts  --      2.5685                 0.9487                 1.8773
 IR Inten    --     42.0720                 0.2825                80.0112

                     34                     35                     36
                      A                      A                      A
 Frequencies --   1319.7705              1325.0278              1362.8106
 Red. masses --      1.9763                 1.3403                 1.3388
 Frc consts  --      2.0281                 1.3865                 1.4650
 IR Inten    --    293.3747                12.3185                13.5420

                     37                     38                     39
                      A                      A                      A
 Frequencies --   1381.1139              1444.2733              1473.1622
 Red. masses --      1.4331                 1.5119                 1.1698
 Frc consts  --      1.6106                 1.8581                 1.4957
 IR Inten    --      7.1529                17.8628                15.4035

                     40                     41                     42
                      A                      A                      A
 Frequencies --   1482.7430              1496.8374              1515.6627
 Red. masses --      1.0399                 1.5584                 1.0753
 Frc consts  --      1.3470                 2.0572                 1.4554
 IR Inten    --      4.4155                 0.5149                40.5087

                     43                     44                     45
                      A                      A                      A
 Frequencies --   1526.8206              1541.2236              1744.9493
 Red. masses --      1.0864                 2.1533                 5.9865
 Frc consts  --      1.4922                 3.0137                10.7397
 IR Inten    --     15.9181               238.5959               487.4396

                     46                     47                     48
                      A                      A                      A
 Frequencies --   1762.1832              2370.4229              2958.3137
 Red. masses --      7.1198                12.6223                 1.0548
 Frc consts  --     13.0263                41.7869                 5.4389
 IR Inten    --      1.2031                 5.3617               137.5614

                     49                     50                     51
                      A                      A                      A
 Frequencies --   2965.4161              2994.9686              3034.7749
 Red. masses --      1.1025                 1.0396                 1.1038
 Frc consts  --      5.7121                 5.4944                 5.9894
 IR Inten    --     26.8925               137.0915                44.8374

                     52                     53                     54
                      A                      A                      A
 Frequencies --   3055.2740              3100.4999              3127.4651
 Red. masses --      1.0863                 1.0882                 1.0947
 Frc consts  --      5.9743                 6.1635                 6.3083
 IR Inten    --     33.2592                24.6415                14.3014

                     55                     56                     57
                      A                      A                      A
 Frequencies --   3543.3316              3603.0093              3666.7713
 Red. masses --      1.0747                 1.0774                 1.0764
 Frc consts  --      7.9502                 8.2406                 8.5267
 IR Inten    --     12.0464                 7.1525                49.8265

 - Thermochemistry -
 -------------------
 Temperature   298.150 Kelvin.  Pressure   1.00000 Atm.
 Atom     1 has atomic number  6 and mass  12.00000

 Molecular mass:   154.09669 amu.
 Principal axes and moments of inertia in atomic units:
                           1         2         3
     Eigenvalues --   161.261547468.436637607.11216
           X            1.00000   0.00170  -0.00000
           Y           -0.00170   1.00000   0.00003
           Z            0.00000  -0.00003   1.00000
 This molecule is an asymmetric top.
 Rotational symmetry number  1.
 Rotational temperatures (Kelvin)      0.53710     0.01160     0.01139
 Rotational constants (GHZ):          11.19139     0.24165     0.23724
    4 imaginary frequencies ignored.
 Zero-point vibrational energy     432194.9 (Joules/Mol)
                                  103.29707 (Kcal/Mol)
 Warning -- explicit consideration of  16 degrees of freedom as
           vibrations may cause significant error
 Vibrational temperatures:     75.71   107.42   136.55   179.55   201.91
          (Kelvin)            307.28   345.01   395.19   411.75   498.51
                              525.04   526.91   549.76   661.90   769.21
                              871.94   964.67  1351.86  1357.42  1362.15
                             1474.06  1490.07  1560.10  1651.38  1671.61
                             1743.71  1758.24  1766.97  1844.71  1898.86
                             1906.42  1960.78  1987.11  2077.99  2119.55
                             2133.34  2153.62  2180.70  2196.75  2217.48
                             2510.59  2535.39  3410.51  4256.35  4266.57
                             4309.09  4366.36  4395.86  4460.93  4499.72
                             5098.06  5183.93  5275.67

 Zero-point correction=                           0.164614 (Hartree/Particle)
 Thermal correction to Energy=                    0.175607
 Thermal correction to Enthalpy=                  0.176551
 Thermal correction to Gibbs Free Energy=         0.127066
 Sum of electronic and zero-point Energies=           -524.810976
 Sum of electronic and thermal Energies=              -524.799984
 Sum of electronic and thermal Enthalpies=            -524.799039
 Sum of electronic and thermal Free Energies=         -524.848525

                     E (Thermal)             CV                S
                      KCal/Mol        Cal/Mol-Kelvin    Cal/Mol-Kelvin
 Total                  110.195             37.937            104.150
 Electronic               0.000              0.000              0.000
 Translational            0.889              2.981             41.007
 Rotational               0.889              2.981             30.594
 Vibrational            108.417             31.976             32.549
 Vibration     1          0.596              1.977              4.716
 Vibration     2          0.599              1.966              4.027
 Vibration     3          0.603              1.953              3.556
 Vibration     4          0.610              1.928              3.025
 Vibration     5          0.615              1.913              2.799
 Vibration     6          0.644              1.820              2.013
 Vibration     7          0.657              1.780              1.804
 Vibration     8          0.677              1.720              1.567
 Vibration     9          0.684              1.699              1.496
 Vibration    10          0.724              1.582              1.182
 Vibration    11          0.738              1.544              1.101
 Vibration    12          0.739              1.542              1.096
 Vibration    13          0.752              1.508              1.031
 Vibration    14          0.818              1.339              0.766
 Vibration    15          0.890              1.173              0.577
 Vibration    16          0.965              1.019              0.439

 Optimization completed.
    -- Stationary point found.
 Normal termination of Gaussian 16 at Tue Jun  1 03:31:50 2021.
