 Gaussian 16, Revision A.03,
 Gaussian 16:  ES64L-G16RevA.03 25-Dec-2016

 -----------------------------
 # opt freq b3lyp/6-31g(2df,p)
 -----------------------------

 -------------------
 Title Card Required
 -------------------
 Symbolic Z-matrix:
 Charge =  0 Multiplicity = 1

 SCF Done:  E(RB3LYP) =  -582.671184856     A.U. after   13 cycles
 SCF Done:  E(RB3LYP) =  -582.690844021     A.U. after   12 cycles
 SCF Done:  E(RB3LYP) =  -582.695950765     A.U. after   12 cycles
 SCF Done:  E(RB3LYP) =  -582.697095656     A.U. after   12 cycles
 SCF Done:  E(RB3LYP) =  -582.697741966     A.U. after   12 cycles
 SCF Done:  E(RB3LYP) =  -582.698554231     A.U. after   12 cycles
 SCF Done:  E(RB3LYP) =  -582.699139896     A.U. after   12 cycles
 SCF Done:  E(RB3LYP) =  -582.699585618     A.U. after   12 cycles
 SCF Done:  E(RB3LYP) =  -582.699671000     A.U. after   11 cycles
 SCF Done:  E(RB3LYP) =  -582.699726036     A.U. after   11 cycles
 SCF Done:  E(RB3LYP) =  -582.715542820     A.U. after   12 cycles
 SCF Done:  E(RB3LYP) =  -582.715714194     A.U. after   11 cycles
 SCF Done:  E(RB3LYP) =  -582.715754275     A.U. after   10 cycles
 SCF Done:  E(RB3LYP) =  -582.715761389     A.U. after    9 cycles
 SCF Done:  E(RB3LYP) =  -582.715766690     A.U. after   10 cycles
 SCF Done:  E(RB3LYP) =  -582.715768093     A.U. after    9 cycles
 SCF Done:  E(RB3LYP) =  -582.715768962     A.U. after    9 cycles
 SCF Done:  E(RB3LYP) =  -582.715769174     A.U. after    8 cycles
 SCF Done:  E(RB3LYP) =  -582.715769194     A.U. after    6 cycles
 Optimization completed.
    -- Stationary point found.
 Normal termination of Gaussian 16 at Tue Jun  1 12:10:05 2021.

 ----------------------------------------------------------------------
 #N Geom=AllCheck Guess=TCheck SCRF=Check GenChk RB3LYP/6-31G(2df,p) Fr
 eq
 ----------------------------------------------------------------------

 Structure from the checkpoint file:  "CNCdNNNNCNCCdN.chk"
 -------------------
 Title Card Required
 -------------------
 Charge =  0 Multiplicity = 1

                         Standard orientation:
 ---------------------------------------------------------------------
 Center     Atomic      Atomic             Coordinates (Angstroms)
 Number     Number       Type             X           Y           Z
 ---------------------------------------------------------------------
      1          6           0       -4.728872    1.744705   -0.152751
      2          7           0       -3.946510    0.686349    0.461704
      3          6           0       -2.881388    0.135049   -0.214563
      4          7           0       -1.878318   -0.370725    0.390778
      5          7           0       -0.862766   -0.900860   -0.413875
      6          7           0       -0.340600   -2.091510    0.197145
      7          7           0        0.947969   -2.429784   -0.258262
      8          6           0        1.986180   -1.634552    0.368166
      9          7           0        2.133854   -0.311441   -0.239050
     10          6           0        3.181399    0.496308    0.365404
     11          6           0        3.403084    1.762522   -0.427958
     12          7           0        3.523985    2.946877    0.010715
     13          1           0       -5.667066    1.867532    0.394419
     14          1           0       -4.979525    1.461237   -1.179715
     15          1           0       -4.214921    2.717266   -0.184562
     16          1           0       -3.768067    0.795569    1.450977
     17          1           0       -2.993871    0.140476   -1.306915
     18          1           0       -1.212133   -1.106464   -1.359459
     19          1           0       -0.947819   -2.884534   -0.001846
     20          1           0        1.031578   -2.339644   -1.273059
     21          1           0        2.943583   -2.160190    0.247903
     22          1           0        1.745571   -1.607157    1.442145
     23          1           0        1.234678    0.160458   -0.190426
     24          1           0        4.113761   -0.089931    0.336493
     25          1           0        3.008773    0.754959    1.427617
     26          1           0        3.460635    1.608084   -1.510833
     27          1           0        3.439105    2.955803    1.033379
 ---------------------------------------------------------------------

 SCF Done:  E(RB3LYP) =  -582.715769194     A.U. after    1 cycles

 The electronic state is 1-A.
 Alpha  occ. eigenvalues --  -14.37626 -14.36694 -14.34921 -14.34093 -14.33370
 Alpha  occ. eigenvalues --  -14.30746 -14.30535 -10.24586 -10.22584 -10.22199
 Alpha  occ. eigenvalues --  -10.21810 -10.20900  -1.02583  -0.96364  -0.92580
 Alpha  occ. eigenvalues --   -0.90227  -0.87891  -0.81582  -0.73516  -0.69369
 Alpha  occ. eigenvalues --   -0.67266  -0.61886  -0.61313  -0.57867  -0.54672
 Alpha  occ. eigenvalues --   -0.52719  -0.52230  -0.48457  -0.46927  -0.46226
 Alpha  occ. eigenvalues --   -0.45316  -0.44560  -0.43912  -0.41899  -0.40196
 Alpha  occ. eigenvalues --   -0.39960  -0.38789  -0.37583  -0.36447  -0.30502
 Alpha  occ. eigenvalues --   -0.29205  -0.27649  -0.26292  -0.25105  -0.23953
 Alpha  occ. eigenvalues --   -0.22205  -0.19671
 Alpha virt. eigenvalues --    0.00719   0.02298   0.07054   0.09171   0.09874
 Alpha virt. eigenvalues --    0.10050   0.11780   0.12112   0.12910   0.13378
 Alpha virt. eigenvalues --    0.14385   0.15461   0.15928   0.16917   0.17174

 Mulliken charges:
               1
     1  C   -0.324626
     2  N   -0.279750
     3  C    0.102496
     4  N   -0.184937
     5  N   -0.248211
     6  N   -0.228406
     7  N   -0.268221
     8  C   -0.061118
     9  N   -0.311672
    10  C   -0.185336
    11  C    0.064775
    12  N   -0.391364
    13  H    0.134588
    14  H    0.135031
    15  H    0.122420
    16  H    0.248824
    17  H    0.081383
    18  H    0.202087
    19  H    0.227450
    20  H    0.206627
    21  H    0.098072
    22  H    0.103291
    23  H    0.236476
    24  H    0.114415
    25  H    0.082100
    26  H    0.110247
    27  H    0.213358
 Sum of Mulliken charges =  -0.00000

 Dipole moment (field-independent basis, Debye):
    X=             -3.6940    Y=             -0.8531    Z=             -0.9528  Tot=              3.9091
 Quadrupole moment (field-independent basis, Debye-Ang):
   XX=            -64.3528   YY=            -81.2432   ZZ=            -68.6226
   XY=            -12.5797   XZ=              6.2467   YZ=              7.7356

  Exact polarizability: 138.935 -16.351 116.771   1.695   4.011  91.030
 Approx polarizability: 171.215 -21.984 160.732   3.190   6.994 143.210

                      1                      2                      3
                      A                      A                      A
 Frequencies --     17.9250                39.4590                45.5326
 Red. masses --      4.8084                 2.4792                 3.3928
 Frc consts  --      0.0009                 0.0023                 0.0041
 IR Inten    --      0.5502                 4.4166                 2.2534

                      4                      5                      6
                      A                      A                      A
 Frequencies --     63.3169               105.2240               109.0535
 Red. masses --      2.6525                 3.3834                 2.6858
 Frc consts  --      0.0063                 0.0221                 0.0188
 IR Inten    --      0.9792                 7.4665                 2.7179

                      7                      8                      9
                      A                      A                      A
 Frequencies --    121.6495               139.5608               150.3023
 Red. masses --      2.6168                 2.7803                 2.6160
 Frc consts  --      0.0228                 0.0319                 0.0348
 IR Inten    --     12.3026                 5.0767                 4.4283

                     10                     11                     12
                      A                      A                      A
 Frequencies --    173.7712               206.2435               317.7493
 Red. masses --      1.3592                 3.3817                 2.7763
 Frc consts  --      0.0242                 0.0848                 0.1652
 IR Inten    --      1.5192                 1.8321                13.4201

                     13                     14                     15
                      A                      A                      A
 Frequencies --    330.5691               352.2574               366.8422
 Red. masses --      4.1945                 3.3480                 3.9022
 Frc consts  --      0.2701                 0.2448                 0.3094
 IR Inten    --      2.1356                 2.6667                 3.6950

                     16                     17                     18
                      A                      A                      A
 Frequencies --    405.9548               492.4550               495.6832
 Red. masses --      2.6980                 3.6081                 2.7073
 Frc consts  --      0.2620                 0.5155                 0.3919
 IR Inten    --      4.8702                41.9939                16.3702

                     19                     20                     21
                      A                      A                      A
 Frequencies --    552.0809               630.5621               674.3397
 Red. masses --      2.5308                 2.4303                 1.7382
 Frc consts  --      0.4545                 0.5693                 0.4657
 IR Inten    --      6.6193                29.7751                72.0955

                     22                     23                     24
                      A                      A                      A
 Frequencies --    733.3464               761.6423               818.8316
 Red. masses --      1.5954                 2.1036                 1.8060
 Frc consts  --      0.5055                 0.7190                 0.7134
 IR Inten    --     31.0558                79.3756               102.1327

                     25                     26                     27
                      A                      A                      A
 Frequencies --    865.8268               934.0754               958.6796
 Red. masses --      1.3119                 2.0157                 2.2331
 Frc consts  --      0.5794                 1.0362                 1.2092
 IR Inten    --     49.9958                51.5324                30.0209

                     28                     29                     30
                      A                      A                      A
 Frequencies --    971.1516              1001.1501              1021.0161
 Red. masses --      1.6312                 2.5953                 1.8045
 Frc consts  --      0.9064                 1.5327                 1.1084
 IR Inten    --     29.3637                27.6991                17.7386

                     31                     32                     33
                      A                      A                      A
 Frequencies --   1042.3435              1055.1834              1114.0581
 Red. masses --      2.2798                 2.9508                 1.8907
 Frc consts  --      1.4594                 1.9358                 1.3826
 IR Inten    --     16.7647                13.4922                17.4265

                     34                     35                     36
                      A                      A                      A
 Frequencies --   1121.3315              1134.9782              1149.9742
 Red. masses --      2.0901                 3.7550                 1.2351
 Frc consts  --      1.5484                 2.8499                 0.9623
 IR Inten    --     30.3589                50.1674                70.8762

                     37                     38                     39
                      A                      A                      A
 Frequencies --   1150.1419              1161.8034              1174.7797
 Red. masses --      1.2784                 1.4884                 2.6662
 Frc consts  --      0.9964                 1.1837                 2.1680
 IR Inten    --      2.2384                 3.0729               103.4829

                     40                     41                     42
                      A                      A                      A
 Frequencies --   1210.2471              1229.7168              1275.4400
 Red. masses --      2.8356                 1.3545                 1.2707
 Frc consts  --      2.4470                 1.2068                 1.2179
 IR Inten    --     37.7046                12.9592                56.6709

                     43                     44                     45
                      A                      A                      A
 Frequencies --   1312.7902              1315.7917              1344.1245
 Red. masses --      1.8743                 1.3321                 1.2602
 Frc consts  --      1.9032                 1.3588                 1.3414
 IR Inten    --     72.2040                30.5664                60.6569

                     46                     47                     48
                      A                      A                      A
 Frequencies --   1361.8786              1401.7621              1416.1591
 Red. masses --      1.2986                 1.2613                 1.3273
 Frc consts  --      1.4191                 1.4602                 1.5684
 IR Inten    --     12.7508                 9.9389                 9.2855

                     49                     50                     51
                      A                      A                      A
 Frequencies --   1448.1823              1463.9948              1468.5888
 Red. masses --      1.1503                 1.1984                 1.3412
 Frc consts  --      1.4214                 1.5133                 1.7043
 IR Inten    --     11.2264                17.6333                 3.2408

                     52                     53                     54
                      A                      A                      A
 Frequencies --   1484.6007              1490.7044              1494.3541
 Red. masses --      1.0972                 1.0767                 1.1888
 Frc consts  --      1.4247                 1.4097                 1.5642
 IR Inten    --      1.8386                57.6283                44.1883

                     55                     56                     57
                      A                      A                      A
 Frequencies --   1500.4301              1514.6048              1525.3357
 Red. masses --      1.0829                 1.1088                 1.1713
 Frc consts  --      1.4364                 1.4987                 1.6056
 IR Inten    --     13.4945                 5.0355                 8.1875

                     58                     59                     60
                      A                      A                      A
 Frequencies --   1537.0736              1731.0066              1738.2558
 Red. masses --      1.2418                 8.5163                 6.0175
 Frc consts  --      1.7286                15.0348                10.7126
 IR Inten    --     14.8305                55.3383               242.5910

                     61                     62                     63
                      A                      A                      A
 Frequencies --   2919.1809              2985.1185              2988.1053
 Red. masses --      1.0697                 1.0599                 1.0523
 Frc consts  --      5.3709                 5.5645                 5.5358
 IR Inten    --     66.7373                58.6996                87.1846

                     64                     65                     66
                      A                      A                      A
 Frequencies --   2997.0988              3028.5605              3031.0496
 Red. masses --      1.0859                 1.1033                 1.0861
 Frc consts  --      5.7468                 5.9622                 5.8788
 IR Inten    --     32.2825                49.0141                34.2939

                     67                     68                     69
                      A                      A                      A
 Frequencies --   3076.2142              3080.9921              3116.9362
 Red. masses --      1.0822                 1.0878                 1.1022
 Frc consts  --      6.0336                 6.0837                 6.3093
 IR Inten    --     28.6880                31.1118                21.3022

                     70                     71                     72
                      A                      A                      A
 Frequencies --   3278.0284              3392.9981              3405.4799
 Red. masses --      1.0734                 1.0732                 1.0725
 Frc consts  --      6.7956                 7.2795                 7.3280
 IR Inten    --     31.0873                 6.0453                 7.2879

                     73                     74                     75
                      A                      A                      A
 Frequencies --   3446.3167              3506.1243              3589.4074
 Red. masses --      1.0758                 1.0742                 1.0745
 Frc consts  --      7.5282                 7.7805                 8.1562
 IR Inten    --      7.0806                39.4108                17.9971

 - Thermochemistry -
 -------------------
 Temperature   298.150 Kelvin.  Pressure   1.00000 Atm.
 Atom     1 has atomic number  6 and mass  12.00000

 Molecular mass:   173.13889 amu.
 Principal axes and moments of inertia in atomic units:
                           1         2         3
     Eigenvalues --  1700.298775014.880726482.07578
           X            0.99968  -0.02408   0.00748
           Y            0.02404   0.99969   0.00622
           Z           -0.00763  -0.00604   0.99995
 This molecule is an asymmetric top.
 Rotational symmetry number  1.
 Warning -- assumption of classical behavior for rotation
           may cause significant error
 Rotational temperatures (Kelvin)      0.05094     0.01727     0.01336
 Rotational constants (GHZ):           1.06143     0.35988     0.27842
 Zero-point vibrational energy     610499.2 (Joules/Mol)
                                  145.91281 (Kcal/Mol)
 Warning -- explicit consideration of  19 degrees of freedom as
           vibrations may cause significant error
 Vibrational temperatures:     25.79    56.77    65.51    91.10   151.39
          (Kelvin)            156.90   175.03   200.80   216.25   250.02
                              296.74   457.17   475.62   506.82   527.80
                              584.08   708.53   713.18   794.32   907.24
                              970.22  1055.12  1095.83  1178.12  1245.73
                             1343.93  1379.33  1397.27  1440.43  1469.01
                             1499.70  1518.17  1602.88  1613.35  1632.98
                             1654.56  1654.80  1671.58  1690.25  1741.28
                             1769.29  1835.07  1888.81  1893.13  1933.90
                             1959.44  2016.82  2037.54  2083.61  2106.36
                             2112.97  2136.01  2144.79  2150.04  2158.78
                             2179.18  2194.62  2211.51  2490.53  2500.96
                             4200.05  4294.92  4299.22  4312.16  4357.42
                             4361.00  4425.99  4432.86  4484.58  4716.35
                             4881.77  4899.73  4958.48  5044.53  5164.36

 Zero-point correction=                           0.232527 (Hartree/Particle)
 Thermal correction to Energy=                    0.246953
 Thermal correction to Enthalpy=                  0.247898
 Thermal correction to Gibbs Free Energy=         0.188245
 Sum of electronic and zero-point Energies=           -582.483242
 Sum of electronic and thermal Energies=              -582.468816
 Sum of electronic and thermal Enthalpies=            -582.467872
 Sum of electronic and thermal Free Energies=         -582.527524

                     E (Thermal)             CV                S
                      KCal/Mol        Cal/Mol-Kelvin    Cal/Mol-Kelvin
 Total                  154.966             49.709            125.548
 Electronic               0.000              0.000              0.000
 Translational            0.889              2.981             41.354
 Rotational               0.889              2.981             32.380
 Vibrational            153.188             43.748             51.814
 Vibration     1          0.593              1.986              6.852
 Vibration     2          0.594              1.981              5.286
 Vibration     3          0.595              1.979              5.003
 Vibration     4          0.597              1.972              4.351
 Vibration     5          0.605              1.945              3.355
 Vibration     6          0.606              1.942              3.286
 Vibration     7          0.609              1.931              3.074
 Vibration     8          0.615              1.914              2.810
 Vibration     9          0.618              1.902              2.668
 Vibration    10          0.627              1.875              2.394
 Vibration    11          0.641              1.831              2.077
 Vibration    12          0.704              1.640              1.322
 Vibration    13          0.713              1.614              1.257
 Vibration    14          0.729              1.571              1.156
 Vibration    15          0.740              1.540              1.093
 Vibration    16          0.771              1.457              0.941
 Vibration    17          0.848              1.267              0.677
 Vibration    18          0.851              1.260              0.669
 Vibration    19          0.907              1.135              0.540

                           ! Non-Optimized Parameters !
 Normal termination of Gaussian 16 at Tue Jun  1 13:02:21 2021.
