 Gaussian 16, Revision A.03,
 Gaussian 16:  ES64L-G16RevA.03 25-Dec-2016

 -----------------------------
 # opt freq b3lyp/6-31g(2df,p)
 -----------------------------

 -------------------
 Title Card Required
 -------------------
 Symbolic Z-matrix:
 Charge =  0 Multiplicity = 1

 SCF Done:  E(RB3LYP) =  -510.167652266     A.U. after   15 cycles
 SCF Done:  E(RB3LYP) =  -510.193112501     A.U. after   13 cycles
 SCF Done:  E(RB3LYP) =  -510.194870390     A.U. after   12 cycles
 SCF Done:  E(RB3LYP) =  -510.195964484     A.U. after   13 cycles
 SCF Done:  E(RB3LYP) =  -510.197032241     A.U. after   15 cycles
 SCF Done:  E(RB3LYP) =  -510.197821882     A.U. after   12 cycles
 SCF Done:  E(RB3LYP) =  -510.198464167     A.U. after   12 cycles
 SCF Done:  E(RB3LYP) =  -510.198755439     A.U. after   12 cycles
 SCF Done:  E(RB3LYP) =  -510.198881323     A.U. after   12 cycles
 SCF Done:  E(RB3LYP) =  -510.198943751     A.U. after   10 cycles
 SCF Done:  E(RB3LYP) =  -510.199881477     A.U. after    8 cycles
 SCF Done:  E(RB3LYP) =  -510.199883930     A.U. after    9 cycles
 SCF Done:  E(RB3LYP) =  -510.199884989     A.U. after    8 cycles
 SCF Done:  E(RB3LYP) =  -510.199885855     A.U. after    8 cycles
 SCF Done:  E(RB3LYP) =  -510.199886106     A.U. after    8 cycles
 SCF Done:  E(RB3LYP) =  -510.199886658     A.U. after    7 cycles
 SCF Done:  E(RB3LYP) =  -510.199887774     A.U. after    9 cycles
 SCF Done:  E(RB3LYP) =  -510.199888343     A.U. after    8 cycles
 SCF Done:  E(RB3LYP) =  -510.199888528     A.U. after    7 cycles
 Optimization completed.
    -- Stationary point found.
 Normal termination of Gaussian 16 at Tue Jun  1 21:51:46 2021.

 ----------------------------------------------------------------------
 #N Geom=AllCheck Guess=TCheck SCRF=Check GenChk RB3LYP/6-31G(2df,p) Fr
 eq
 ----------------------------------------------------------------------

 Structure from the checkpoint file:  "CNCdNCpCtNpNCNC.chk"
 -------------------
 Title Card Required
 -------------------
 Charge =  0 Multiplicity = 1

                         Standard orientation:
 ---------------------------------------------------------------------
 Center     Atomic      Atomic             Coordinates (Angstroms)
 Number     Number       Type             X           Y           Z
 ---------------------------------------------------------------------
      1          6           0        4.609079   -0.512378   -0.616827
      2          7           0        3.416562   -0.874907    0.117348
      3          6           0        2.277974   -0.142178    0.124619
      4          7           0        1.194526   -0.573261    0.649495
      5          6           0        0.008881    0.251111    0.649462
      6          6           0        0.194175    1.627360    0.109530
      7          7           0        0.385849    2.696399   -0.286518
      8          7           0       -1.026605   -0.425624   -0.129305
      9          6           0       -2.382604   -0.019317    0.221842
     10          7           0       -3.346949   -0.832821   -0.491171
     11          6           0       -4.720382   -0.390647   -0.285800
     12          1           0        5.504339   -0.681426   -0.009684
     13          1           0        4.567276    0.551228   -0.864131
     14          1           0        4.714985   -1.074824   -1.553872
     15          1           0        3.340421   -1.811561    0.484932
     16          1           0        2.387879    0.847873   -0.332778
     17          1           0       -0.300843    0.386551    1.704917
     18          1           0       -0.893075   -1.418793    0.039222
     19          1           0       -2.522056    1.023222   -0.093453
     20          1           0       -2.542945   -0.036136    1.327432
     21          1           0       -3.260213   -1.798488   -0.187652
     22          1           0       -4.853924    0.600595   -0.733009
     23          1           0       -5.025346   -0.321704    0.774235
     24          1           0       -5.402919   -1.078748   -0.792050
 ---------------------------------------------------------------------

 SCF Done:  E(RB3LYP) =  -510.199888528     A.U. after    2 cycles

 The electronic state is 1-A.
 Alpha  occ. eigenvalues --  -14.36304 -14.32356 -14.31877 -14.31539 -14.31037
 Alpha  occ. eigenvalues --  -10.27345 -10.25976 -10.23390 -10.22997 -10.21023
 Alpha  occ. eigenvalues --  -10.20087  -0.97398  -0.94190  -0.90634  -0.88757
 Alpha  occ. eigenvalues --   -0.85796  -0.73689  -0.69472  -0.66515  -0.63231
 Alpha  occ. eigenvalues --   -0.62065  -0.54820  -0.51416  -0.49849  -0.48047
 Alpha  occ. eigenvalues --   -0.46745  -0.45949  -0.45453  -0.44292  -0.41886
 Alpha  occ. eigenvalues --   -0.40894  -0.39317  -0.37805  -0.36591  -0.35754
 Alpha  occ. eigenvalues --   -0.35476  -0.32797  -0.32281  -0.26936  -0.24436
 Alpha  occ. eigenvalues --   -0.22879  -0.22176
 Alpha virt. eigenvalues --    0.02006   0.03424   0.04284   0.08396   0.08521
 Alpha virt. eigenvalues --    0.09911   0.11017   0.11376   0.13100   0.15101
 Alpha virt. eigenvalues --    0.15210   0.15837   0.16293   0.16871   0.18052

 Mulliken charges:
               1
     1  C   -0.326588
     2  N   -0.284310
     3  C    0.142357
     4  N   -0.321295
     5  C   -0.035792
     6  C    0.287712
     7  N   -0.349549
     8  N   -0.297618
     9  C   -0.070404
    10  N   -0.285379
    11  C   -0.312677
    12  H    0.135901
    13  H    0.150637
    14  H    0.132318
    15  H    0.251546
    16  H    0.123083
    17  H    0.101152
    18  H    0.220600
    19  H    0.123936
    20  H    0.058005
    21  H    0.211769
    22  H    0.129755
    23  H    0.094237
    24  H    0.120604
 Sum of Mulliken charges =  -0.00000

 Dipole moment (field-independent basis, Debye):
    X=              1.9899    Y=             -3.6805    Z=              1.3785  Tot=              4.4053
 Quadrupole moment (field-independent basis, Debye-Ang):
   XX=            -44.3301   YY=            -72.2119   ZZ=            -69.5431
   XY=             -2.4666   XZ=             -5.1882   YZ=              0.9406

  Exact polarizability: 143.308  -3.608  94.904  -7.105  -3.605  73.000
 Approx polarizability: 165.088  -0.781 150.638 -12.248 -11.306 114.712

                      1                      2                      3
                      A                      A                      A
 Frequencies --     27.1674                32.0850                45.9019
 Red. masses --      2.3280                 2.7356                 3.7233
 Frc consts  --      0.0010                 0.0017                 0.0046
 IR Inten    --      2.9353                 1.7433                 2.8367

                      4                      5                      6
                      A                      A                      A
 Frequencies --     55.9914               108.4001               112.0477
 Red. masses --      1.6106                 2.6589                 4.6990
 Frc consts  --      0.0030                 0.0184                 0.0348
 IR Inten    --      2.4792                 0.8035                 3.6556

                      7                      8                      9
                      A                      A                      A
 Frequencies --    122.7017               171.9320               195.4853
 Red. masses --      2.2463                 2.6744                 3.3024
 Frc consts  --      0.0199                 0.0466                 0.0744
 IR Inten    --      4.0739                 0.6523                 0.9456

                     10                     11                     12
                      A                      A                      A
 Frequencies --    217.2417               243.9141               264.5850
 Red. masses --      2.0744                 1.2096                 4.4406
 Frc consts  --      0.0577                 0.0424                 0.1832
 IR Inten    --      1.6894                 1.6980                 2.5735

                     13                     14                     15
                      A                      A                      A
 Frequencies --    316.8062               356.6492               434.8176
 Red. masses --      5.6069                 3.7143                 4.8503
 Frc consts  --      0.3316                 0.2784                 0.5403
 IR Inten    --      1.2420                 6.0240                 6.1914

                     16                     17                     18
                      A                      A                      A
 Frequencies --    472.8309               530.5967               592.4333
 Red. masses --      4.7847                 4.4185                 1.3526
 Frc consts  --      0.6303                 0.7329                 0.2797
 IR Inten    --      2.7851                10.5190                97.1305

                     19                     20                     21
                      A                      A                      A
 Frequencies --    633.0914               699.0428               762.5210
 Red. masses --      4.2544                 4.6559                 1.6458
 Frc consts  --      1.0047                 1.3405                 0.5638
 IR Inten    --      5.9653                 2.8544                56.5648

                     22                     23                     24
                      A                      A                      A
 Frequencies --    785.5428               899.9837               989.3711
 Red. masses --      1.2438                 4.6104                 2.2585
 Frc consts  --      0.4522                 2.2002                 1.3025
 IR Inten    --    104.3541                33.1653                 3.4836

                     25                     26                     27
                      A                      A                      A
 Frequencies --   1021.1319              1035.0912              1049.6109
 Red. masses --      1.6778                 1.7639                 2.8550
 Frc consts  --      1.0307                 1.1135                 1.8532
 IR Inten    --     40.3436                41.6477                 2.2421

                     28                     29                     30
                      A                      A                      A
 Frequencies --   1056.7899              1091.2846              1132.6453
 Red. masses --      1.6295                 2.0842                 3.1028
 Frc consts  --      1.0722                 1.4624                 2.3452
 IR Inten    --     21.1562                14.0374                47.9091

                     31                     32                     33
                      A                      A                      A
 Frequencies --   1150.3482              1153.6222              1179.9818
 Red. masses --      2.3165                 1.2847                 2.2080
 Frc consts  --      1.8061                 1.0073                 1.8113
 IR Inten    --     88.7620                12.2704                87.0352

                     34                     35                     36
                      A                      A                      A
 Frequencies --   1184.9904              1232.3919              1286.6586
 Red. masses --      2.2915                 1.6632                 1.3001
 Frc consts  --      1.8958                 1.4883                 1.2681
 IR Inten    --     24.3760                 9.2280                34.3472

                     37                     38                     39
                      A                      A                      A
 Frequencies --   1316.2090              1342.6049              1362.2713
 Red. masses --      1.2345                 1.7802                 1.3342
 Frc consts  --      1.2600                 1.8907                 1.4588
 IR Inten    --    140.2621                67.4727                28.8667

                     40                     41                     42
                      A                      A                      A
 Frequencies --   1395.4399              1404.6972              1454.2767
 Red. masses --      1.2014                 1.2679                 1.1816
 Frc consts  --      1.3783                 1.4740                 1.4724
 IR Inten    --     16.0665                 7.2596                46.9988

                     43                     44                     45
                      A                      A                      A
 Frequencies --   1471.1685              1479.3904              1485.0296
 Red. masses --      1.1610                 1.2175                 1.0704
 Frc consts  --      1.4805                 1.5699                 1.3907
 IR Inten    --     31.1046                83.2426                 4.2367

                     46                     47                     48
                      A                      A                      A
 Frequencies --   1490.4134              1493.6968              1498.4922
 Red. masses --      1.1251                 1.5978                 1.1754
 Frc consts  --      1.4725                 2.1004                 1.5550
 IR Inten    --      6.9118                 1.8913                 1.8842

                     49                     50                     51
                      A                      A                      A
 Frequencies --   1519.7792              1535.5842              1536.0154
 Red. masses --      1.0729                 1.3027                 1.0967
 Frc consts  --      1.4600                 1.8098                 1.5245
 IR Inten    --      8.9072                10.5264                 0.4371

                     52                     53                     54
                      A                      A                      A
 Frequencies --   1749.7549              2345.4063              2795.3505
 Red. masses --      5.5588                12.6645                 1.0725
 Frc consts  --     10.0274                41.0464                 4.9378
 IR Inten    --    609.2804                 0.5071               119.0229

                     55                     56                     57
                      A                      A                      A
 Frequencies --   2891.4284              2940.8123              3013.0238
 Red. masses --      1.0789                 1.0599                 1.0430
 Frc consts  --      5.3142                 5.4009                 5.5787
 IR Inten    --     52.1695                97.8035                76.1704

                     58                     59                     60
                      A                      A                      A
 Frequencies --   3030.9523              3059.3178              3062.5276
 Red. masses --      1.0839                 1.0734                 1.0881
 Frc consts  --      5.8669                 5.9194                 6.0130
 IR Inten    --     19.6070                35.5910                14.6679

                     61                     62                     63
                      A                      A                      A
 Frequencies --   3074.4780              3108.5029              3123.6480
 Red. masses --      1.0954                 1.1011                 1.0996
 Frc consts  --      6.1003                 6.2688                 6.3216
 IR Inten    --     29.0314                27.4542                13.8317

                     64                     65                     66
                      A                      A                      A
 Frequencies --   3499.8280              3514.1813              3619.0238
 Red. masses --      1.0734                 1.0733                 1.0752
 Frc consts  --      7.7465                 7.8097                 8.2969
 IR Inten    --      0.6365                 2.5907                31.2855

 - Thermochemistry -
 -------------------
 Temperature   298.150 Kelvin.  Pressure   1.00000 Atm.
 Atom     1 has atomic number  6 and mass  12.00000

 Molecular mass:   155.11710 amu.
 Principal axes and moments of inertia in atomic units:
                           1         2         3
     Eigenvalues --   762.348344416.457914947.62423
           X            0.99997  -0.00104  -0.00816
           Y            0.00110   0.99998   0.00681
           Z            0.00815  -0.00682   0.99994
 This molecule is an asymmetric top.
 Rotational symmetry number  1.
 Warning -- assumption of classical behavior for rotation
           may cause significant error
 Rotational temperatures (Kelvin)      0.11361     0.01961     0.01751
 Rotational constants (GHZ):           2.36734     0.40864     0.36477
 Zero-point vibrational energy     533887.3 (Joules/Mol)
                                  127.60213 (Kcal/Mol)
 Warning -- explicit consideration of  18 degrees of freedom as
           vibrations may cause significant error
 Vibrational temperatures:     39.09    46.16    66.04    80.56   155.96
          (Kelvin)            161.21   176.54   247.37   281.26   312.56
                              350.94   380.68   455.81   513.14   625.61
                              680.30   763.41   852.38   910.88  1005.77
                             1097.10  1130.22  1294.88  1423.48  1469.18
                             1489.27  1510.16  1520.49  1570.12  1629.62
                             1655.09  1659.81  1697.73  1704.94  1773.14
                             1851.21  1893.73  1931.71  1960.00  2007.73
                             2021.05  2092.38  2116.68  2128.51  2136.63
                             2144.37  2149.10  2156.00  2186.62  2209.36
                             2209.98  2517.51  3374.52  4021.89  4160.12
                             4231.17  4335.07  4360.86  4401.68  4406.29
                             4423.49  4472.44  4494.23  5035.47  5056.12
                             5206.97

 Zero-point correction=                           0.203347 (Hartree/Particle)
 Thermal correction to Energy=                    0.216929
 Thermal correction to Enthalpy=                  0.217873
 Thermal correction to Gibbs Free Energy=         0.160625
 Sum of electronic and zero-point Energies=           -509.996542
 Sum of electronic and thermal Energies=              -509.982959
 Sum of electronic and thermal Enthalpies=            -509.982015
 Sum of electronic and thermal Free Energies=         -510.039263

                     E (Thermal)             CV                S
                      KCal/Mol        Cal/Mol-Kelvin    Cal/Mol-Kelvin
 Total                  136.125             45.482            120.489
 Electronic               0.000              0.000              0.000
 Translational            0.889              2.981             41.027
 Rotational               0.889              2.981             31.188
 Vibrational            134.348             39.521             48.274
 Vibration     1          0.593              1.984              6.026
 Vibration     2          0.594              1.983              5.696
 Vibration     3          0.595              1.979              4.987
 Vibration     4          0.596              1.975              4.594
 Vibration     5          0.606              1.943              3.297
 Vibration     6          0.607              1.939              3.233
 Vibration     7          0.610              1.930              3.057
 Vibration     8          0.626              1.877              2.414
 Vibration     9          0.636              1.846              2.175
 Vibration    10          0.646              1.815              1.982
 Vibration    11          0.659              1.773              1.774
 Vibration    12          0.671              1.738              1.631
 Vibration    13          0.704              1.642              1.327
 Vibration    14          0.732              1.562              1.137
 Vibration    15          0.795              1.394              0.843
 Vibration    16          0.830              1.310              0.730
 Vibration    17          0.886              1.182              0.586
 Vibration    18          0.950              1.048              0.463

                           ! Non-Optimized Parameters !
 Normal termination of Gaussian 16 at Tue Jun  1 22:33:10 2021.
