 Gaussian 16, Revision A.03,
 Gaussian 16:  ES64L-G16RevA.03 25-Dec-2016

 -----------------------------
 # opt freq b3lyp/6-31g(2df,p)
 -----------------------------

 -------------------
 Title Card Required
 -------------------
 Symbolic Z-matrix:
 Charge =  0 Multiplicity = 1

 SCF Done:  E(RB3LYP) =  -524.954552856     A.U. after   15 cycles
 SCF Done:  E(RB3LYP) =  -524.984845122     A.U. after   14 cycles
 SCF Done:  E(RB3LYP) =  -524.985532719     A.U. after   14 cycles
 SCF Done:  E(RB3LYP) =  -524.986008199     A.U. after   13 cycles
 SCF Done:  E(RB3LYP) =  -524.986362512     A.U. after   14 cycles
 SCF Done:  E(RB3LYP) =  -524.986143540     A.U. after   15 cycles
 SCF Done:  E(RB3LYP) =  -524.987099721     A.U. after   14 cycles
 SCF Done:  E(RB3LYP) =  -524.987369406     A.U. after   14 cycles
 SCF Done:  E(RB3LYP) =  -524.987462616     A.U. after   12 cycles
 SCF Done:  E(RB3LYP) =  -524.987500807     A.U. after   12 cycles
 SCF Done:  E(RB3LYP) =  -524.988438520     A.U. after   11 cycles
 SCF Done:  E(RB3LYP) =  -524.988495493     A.U. after   12 cycles
 SCF Done:  E(RB3LYP) =  -524.988529662     A.U. after   11 cycles
 SCF Done:  E(RB3LYP) =  -524.988561070     A.U. after   11 cycles
 SCF Done:  E(RB3LYP) =  -524.988604111     A.U. after   11 cycles
 SCF Done:  E(RB3LYP) =  -524.988620427     A.U. after   11 cycles
 SCF Done:  E(RB3LYP) =  -524.988622334     A.U. after    9 cycles
 SCF Done:  E(RB3LYP) =  -524.988622622     A.U. after    8 cycles
 SCF Done:  E(RB3LYP) =  -524.988622639     A.U. after    7 cycles
 Optimization completed.
    -- Stationary point found.
 Normal termination of Gaussian 16 at Mon May 31 21:11:42 2021.

 ----------------------------------------------------------------------
 #N Geom=AllCheck Guess=TCheck SCRF=Check GenChk RB3LYP/6-31G(2df,p) Fr
 eq
 ----------------------------------------------------------------------

 Structure from the checkpoint file:  "CNCdNNdNCNCCtN.chk"
 -------------------
 Title Card Required
 -------------------
 Charge =  0 Multiplicity = 1

                         Standard orientation:
 ---------------------------------------------------------------------
 Center     Atomic      Atomic             Coordinates (Angstroms)
 Number     Number       Type             X           Y           Z
 ---------------------------------------------------------------------
      1          6           0        5.443491   -0.438760   -0.562168
      2          7           0        4.256812   -0.413950    0.264967
      3          6           0        3.045253   -0.008804   -0.141049
      4          7           0        2.019567   -0.022669    0.652096
      5          7           0        0.914817    0.442837   -0.041924
      6          7           0       -0.109803    0.436049    0.666391
      7          6           0       -1.266601    0.943058   -0.062757
      8          7           0       -2.335814   -0.040247    0.067526
      9          6           0       -3.623621    0.491595   -0.352036
     10          6           0       -4.689554   -0.499347   -0.180716
     11          7           0       -5.539648   -1.266380   -0.029777
     12          1           0        6.236432    0.190052   -0.141961
     13          1           0        5.195094   -0.056054   -1.554406
     14          1           0        5.831910   -1.457207   -0.676035
     15          1           0        4.319703   -0.736066    1.220044
     16          1           0        2.971874    0.333151   -1.176589
     17          1           0       -1.044157    1.111745   -1.125074
     18          1           0       -1.531600    1.916783    0.395148
     19          1           0       -2.375927   -0.346180    1.035352
     20          1           0       -3.569202    0.753703   -1.416662
     21          1           0       -3.929459    1.414130    0.177586
 ---------------------------------------------------------------------

 SCF Done:  E(RB3LYP) =  -524.988622639     A.U. after    1 cycles

 The electronic state is 1-A.
 Alpha  occ. eigenvalues --  -14.39346 -14.38412 -14.35234 -14.33090 -14.32987
 Alpha  occ. eigenvalues --  -14.32461 -10.27004 -10.25593 -10.24823 -10.23414
 Alpha  occ. eigenvalues --  -10.21628  -1.04983  -0.98040  -0.93283  -0.89678
 Alpha  occ. eigenvalues --   -0.88331  -0.76424  -0.73215  -0.67996  -0.63677
 Alpha  occ. eigenvalues --   -0.59316  -0.54201  -0.50650  -0.50187  -0.49025
 Alpha  occ. eigenvalues --   -0.48015  -0.47362  -0.46105  -0.43341  -0.42610
 Alpha  occ. eigenvalues --   -0.41604  -0.40704  -0.38925  -0.35201  -0.34657
 Alpha  occ. eigenvalues --   -0.32656  -0.32116  -0.29064  -0.24469  -0.23412
 Alpha  occ. eigenvalues --   -0.21991
 Alpha virt. eigenvalues --   -0.03691   0.03073   0.04030   0.04604   0.07353
 Alpha virt. eigenvalues --    0.08639   0.09193   0.11046   0.12028   0.13620
 Alpha virt. eigenvalues --    0.14033   0.14655   0.16400   0.17478   0.18401

 Mulliken charges:
               1
     1  C   -0.326884
     2  N   -0.263842
     3  C    0.179276
     4  N   -0.239631
     5  N   -0.100045
     6  N   -0.142027
     7  C   -0.052654
     8  N   -0.295442
     9  C   -0.260575
    10  C    0.259756
    11  N   -0.299114
    12  H    0.142190
    13  H    0.150154
    14  H    0.142901
    15  H    0.265873
    16  H    0.117853
    17  H    0.106428
    18  H    0.089119
    19  H    0.240377
    20  H    0.156277
    21  H    0.130009
 Sum of Mulliken charges =   0.00000

 Dipole moment (field-independent basis, Debye):
    X=              7.5642    Y=              2.5029    Z=             -1.4868  Tot=              8.1051
 Quadrupole moment (field-independent basis, Debye-Ang):
   XX=            -57.7899   YY=            -66.3815   ZZ=            -63.0155
   XY=            -17.9166   XZ=             -1.7126   YZ=             -1.5203

  Exact polarizability: 189.385  -7.238  72.414  -7.740  -3.860  71.833
 Approx polarizability: 232.519  -5.918 113.236 -18.302  -6.943 113.859

                      1                      2                      3
                      A                      A                      A
 Frequencies --     21.9926                55.7442                59.2820
 Red. masses --      5.5045                 1.5253                 3.0992
 Frc consts  --      0.0016                 0.0028                 0.0064
 IR Inten    --      1.9211                 0.8441                 4.8724

                      4                      5                      6
                      A                      A                      A
 Frequencies --     79.3590                94.9564               123.3530
 Red. masses --      3.0567                 2.7879                 4.7952
 Frc consts  --      0.0113                 0.0148                 0.0430
 IR Inten    --      4.5849                 3.7958                 1.1299

                      7                      8                      9
                      A                      A                      A
 Frequencies --    151.3032               157.0979               220.8442
 Red. masses --      3.3253                 3.4084                 2.8865
 Frc consts  --      0.0449                 0.0496                 0.0829
 IR Inten    --      1.2058                 5.6130                 1.1314

                     10                     11                     12
                      A                      A                      A
 Frequencies --    264.6594               308.3981               352.4425
 Red. masses --      4.0030                 4.2117                 4.2525
 Frc consts  --      0.1652                 0.2360                 0.3112
 IR Inten    --      1.2576                 6.4897                13.0731

                     13                     14                     15
                      A                      A                      A
 Frequencies --    394.1620               406.0730               483.9667
 Red. masses --      3.7653                 6.3714                 4.3280
 Frc consts  --      0.3447                 0.6190                 0.5973
 IR Inten    --      1.8098                 3.1744                 0.8144

                     16                     17                     18
                      A                      A                      A
 Frequencies --    542.6538               613.4062               627.9040
 Red. masses --      5.6220                 5.2814                 1.3689
 Frc consts  --      0.9754                 1.1708                 0.3180
 IR Inten    --      2.2553                 1.9331                95.9811

                     19                     20                     21
                      A                      A                      A
 Frequencies --    713.8631               790.9063               945.6646
 Red. masses --      4.5538                 1.2922                 4.1290
 Frc consts  --      1.3673                 0.4763                 2.1755
 IR Inten    --      8.0697                82.6559                 0.8082

                     22                     23                     24
                      A                      A                      A
 Frequencies --    984.3783              1025.9866              1031.0164
 Red. masses --      1.6973                 2.0636                 1.4326
 Frc consts  --      0.9690                 1.2799                 0.8973
 IR Inten    --     31.1107                 2.4017                 5.3770

                     25                     26                     27
                      A                      A                      A
 Frequencies --   1054.6727              1065.8419              1082.4517
 Red. masses --      2.0208                 5.4265                 3.0847
 Frc consts  --      1.3244                 3.6321                 2.1295
 IR Inten    --     41.0135                69.7801               263.2011

                     28                     29                     30
                      A                      A                      A
 Frequencies --   1142.6624              1153.6283              1167.6733
 Red. masses --      3.5118                 1.2791                 2.1971
 Frc consts  --      2.7016                 1.0030                 1.7650
 IR Inten    --    109.6158                 0.1310                11.6769

                     31                     32                     33
                      A                      A                      A
 Frequencies --   1193.8745              1223.3919              1274.7313
 Red. masses --      2.2418                 1.2885                 1.2242
 Frc consts  --      1.8826                 1.1362                 1.1720
 IR Inten    --      6.2176                94.0628                 5.3775

                     34                     35                     36
                      A                      A                      A
 Frequencies --   1325.5440              1345.1231              1370.7593
 Red. masses --      1.2442                 1.2734                 1.8240
 Frc consts  --      1.2880                 1.3575                 2.0193
 IR Inten    --     87.9300                63.0589               108.0235

                     37                     38                     39
                      A                      A                      A
 Frequencies --   1408.0983              1466.8351              1473.9657
 Red. masses --      1.4432                 2.0191                 1.2757
 Frc consts  --      1.6859                 2.5595                 1.6330
 IR Inten    --     18.8530                59.6404                19.4228

                     40                     41                     42
                      A                      A                      A
 Frequencies --   1480.3600              1481.8634              1489.9948
 Red. masses --      1.2553                 1.0404                 1.0832
 Frc consts  --      1.6208                 1.3460                 1.4169
 IR Inten    --     82.1925                 4.7168                 2.0782

                     43                     44                     45
                      A                      A                      A
 Frequencies --   1511.2184              1525.7590              1598.8999
 Red. masses --      1.0907                 1.1872                 6.9626
 Frc consts  --      1.4675                 1.6283                10.4873
 IR Inten    --      2.3221                33.6624               419.2762

                     46                     47                     48
                      A                      A                      A
 Frequencies --   1718.3167              2369.4403              2901.9533
 Red. masses --      5.2888                12.6246                 1.0691
 Frc consts  --      9.2006                41.7598                 5.3047
 IR Inten    --    552.3749                 4.4111                68.1548

                     49                     50                     51
                      A                      A                      A
 Frequencies --   2923.6407              3024.9103              3026.1841
 Red. masses --      1.0725                 1.0873                 1.0375
 Frc consts  --      5.4012                 5.8616                 5.5981
 IR Inten    --     57.9791                33.5278                74.8475

                     52                     53                     54
                      A                      A                      A
 Frequencies --   3040.9591              3078.8123              3100.9403
 Red. masses --      1.0839                 1.1045                 1.0886
 Frc consts  --      5.9055                 6.1683                 6.1672
 IR Inten    --      9.0998                23.1842                19.0143

                     55                     56                     57
                      A                      A                      A
 Frequencies --   3131.2745              3520.9751              3612.8435
 Red. masses --      1.0992                 1.0738                 1.0753
 Frc consts  --      6.3497                 7.8432                 8.2693
 IR Inten    --     12.6219                 5.5010                57.9368

 - Thermochemistry -
 -------------------
 Temperature   298.150 Kelvin.  Pressure   1.00000 Atm.
 Atom     1 has atomic number  6 and mass  12.00000

 Molecular mass:   154.09669 amu.
 Principal axes and moments of inertia in atomic units:
                           1         2         3
     Eigenvalues --   317.283046896.068787003.60513
           X            0.99992  -0.01163  -0.00403
           Y            0.01136   0.99801  -0.06205
           Z            0.00474   0.06200   0.99807
 This molecule is an asymmetric top.
 Rotational symmetry number  1.
 Rotational temperatures (Kelvin)      0.27299     0.01256     0.01237
 Rotational constants (GHZ):           5.68811     0.26171     0.25769
 Zero-point vibrational energy     441045.3 (Joules/Mol)
                                  105.41235 (Kcal/Mol)
 Warning -- explicit consideration of  17 degrees of freedom as
           vibrations may cause significant error
 Vibrational temperatures:     31.64    80.20    85.29   114.18   136.62
          (Kelvin)            177.48   217.69   226.03   317.75   380.79
                              443.72   507.09   567.11   584.25   696.32
                              780.76   882.55   903.41  1027.09  1137.94
                             1360.60  1416.30  1476.17  1483.40  1517.44
                             1533.51  1557.41  1644.04  1659.81  1680.02
                             1717.72  1760.19  1834.05  1907.16  1935.33
                             1972.22  2025.94  2110.45  2120.71  2129.91
                             2132.07  2143.77  2174.31  2195.23  2300.46
                             2472.27  3409.10  4175.26  4206.47  4352.17
                             4354.00  4375.26  4429.72  4461.56  4505.21
                             5065.90  5198.08

 Zero-point correction=                           0.167985 (Hartree/Particle)
 Thermal correction to Energy=                    0.180549
 Thermal correction to Enthalpy=                  0.181493
 Thermal correction to Gibbs Free Energy=         0.126825
 Sum of electronic and zero-point Energies=           -524.820637
 Sum of electronic and thermal Energies=              -524.808073
 Sum of electronic and thermal Enthalpies=            -524.807129
 Sum of electronic and thermal Free Energies=         -524.861798

                     E (Thermal)             CV                S
                      KCal/Mol        Cal/Mol-Kelvin    Cal/Mol-Kelvin
 Total                  113.296             41.983            115.060
 Electronic               0.000              0.000              0.000
 Translational            0.889              2.981             41.007
 Rotational               0.889              2.981             31.106
 Vibrational            111.519             36.022             42.948
 Vibration     1          0.593              1.985              6.446
 Vibration     2          0.596              1.975              4.602
 Vibration     3          0.597              1.974              4.481
 Vibration     4          0.600              1.963              3.907
 Vibration     5          0.603              1.953              3.555
 Vibration     6          0.610              1.930              3.047
 Vibration     7          0.619              1.901              2.656
 Vibration     8          0.621              1.895              2.584
 Vibration     9          0.648              1.809              1.952
 Vibration    10          0.671              1.738              1.631
 Vibration    11          0.698              1.658              1.371
 Vibration    12          0.729              1.570              1.155
 Vibration    13          0.761              1.483              0.984
 Vibration    14          0.771              1.457              0.941
 Vibration    15          0.840              1.286              0.699
 Vibration    16          0.898              1.156              0.560
 Vibration    17          0.973              1.003              0.427

 Optimization completed.
    -- Stationary point found.
 Normal termination of Gaussian 16 at Mon May 31 21:39:06 2021.
