 Gaussian 16, Revision A.03,
 Gaussian 16:  ES64L-G16RevA.03 25-Dec-2016

 -----------------------------
 # opt freq b3lyp/6-31g(2df,p)
 -----------------------------

 -------------------
 Title Card Required
 -------------------
 Symbolic Z-matrix:
 Charge =  0 Multiplicity = 1

 SCF Done:  E(RB3LYP) =  -527.362906567     A.U. after   14 cycles
 SCF Done:  E(RB3LYP) =  -527.371102515     A.U. after   13 cycles
 SCF Done:  E(RB3LYP) =  -527.376117535     A.U. after   13 cycles
 SCF Done:  E(RB3LYP) =  -527.380632947     A.U. after   14 cycles
 SCF Done:  E(RB3LYP) =  -527.382089151     A.U. after   12 cycles
 SCF Done:  E(RB3LYP) =  -527.382588228     A.U. after   13 cycles
 SCF Done:  E(RB3LYP) =  -527.383015989     A.U. after   13 cycles
 SCF Done:  E(RB3LYP) =  -527.383237017     A.U. after   13 cycles
 SCF Done:  E(RB3LYP) =  -527.383313927     A.U. after   15 cycles
 SCF Done:  E(RB3LYP) =  -527.383495387     A.U. after   13 cycles
 SCF Done:  E(RB3LYP) =  -527.385711216     A.U. after   13 cycles
 SCF Done:  E(RB3LYP) =  -527.385786101     A.U. after   13 cycles
 SCF Done:  E(RB3LYP) =  -527.385827993     A.U. after   13 cycles
 SCF Done:  E(RB3LYP) =  -527.385829406     A.U. after   13 cycles
 SCF Done:  E(RB3LYP) =  -527.385833323     A.U. after    9 cycles
 SCF Done:  E(RB3LYP) =  -527.385842682     A.U. after   12 cycles
 SCF Done:  E(RB3LYP) =  -527.385842500     A.U. after    9 cycles
 SCF Done:  E(RB3LYP) =  -527.385843560     A.U. after   10 cycles
 SCF Done:  E(RB3LYP) =  -527.385843690     A.U. after    9 cycles
 Optimization completed.
    -- Stationary point found.
 Normal termination of Gaussian 16 at Mon May 31 21:28:06 2021.

 ----------------------------------------------------------------------
 #N Geom=AllCheck Guess=TCheck SCRF=Check GenChk RB3LYP/6-31G(2df,p) Fr
 eq
 ----------------------------------------------------------------------

 Structure from the checkpoint file:  "CNCdNNCNpCpCNdN.chk"
 -------------------
 Title Card Required
 -------------------
 Charge =  0 Multiplicity = 1

                         Standard orientation:
 ---------------------------------------------------------------------
 Center     Atomic      Atomic             Coordinates (Angstroms)
 Number     Number       Type             X           Y           Z
 ---------------------------------------------------------------------
      1          6           0       -5.258292   -0.744025   -0.216203
      2          7           0       -4.230765    0.217862    0.146239
      3          6           0       -2.942287    0.031338   -0.319598
      4          7           0       -1.918957    0.358525    0.366350
      5          7           0       -0.684200    0.340844   -0.274931
      6          6           0        0.391437   -0.023962    0.635795
      7          7           0        1.659378    0.181780   -0.037362
      8          6           0        1.982060    1.589823   -0.243059
      9          6           0        2.756213   -0.566857    0.518647
     10          7           0        3.791528   -0.778983   -0.517736
     11          7           0        4.932641   -0.550105   -0.088359
     12          1           0       -6.241178   -0.340337    0.040504
     13          1           0       -5.146685   -1.724906    0.271622
     14          1           0       -5.238046   -0.903239   -1.299182
     15          1           0       -4.244682    0.511519    1.114499
     16          1           0       -2.885955   -0.355934   -1.345517
     17          1           0       -0.663159   -0.260145   -1.101054
     18          1           0        0.342735   -1.078262    0.954312
     19          1           0        0.255935    0.597322    1.537128
     20          1           0        1.121166    2.085508   -0.693649
     21          1           0        2.835492    1.678933   -0.920172
     22          1           0        2.234090    2.106540    0.701206
     23          1           0        2.401104   -1.569853    0.785241
     24          1           0        3.222327   -0.107144    1.410552
     25          1           0        5.584696   -0.747365   -0.868394
 ---------------------------------------------------------------------

 SCF Done:  E(RB3LYP) =  -527.385843690     A.U. after    1 cycles

 The electronic state is 1-A.
 Alpha  occ. eigenvalues --  -14.37955 -14.37208 -14.34179 -14.33934 -14.32814
 Alpha  occ. eigenvalues --  -14.32305 -10.23311 -10.22913 -10.22809 -10.21830
 Alpha  occ. eigenvalues --  -10.19160  -1.02794  -0.98496  -0.93356  -0.91182
 Alpha  occ. eigenvalues --   -0.80150  -0.74350  -0.69859  -0.67480  -0.62130
 Alpha  occ. eigenvalues --   -0.60317  -0.57326  -0.53539  -0.49979  -0.49302
 Alpha  occ. eigenvalues --   -0.48096  -0.46260  -0.44634  -0.43949  -0.42905
 Alpha  occ. eigenvalues --   -0.41477  -0.40432  -0.39221  -0.39016  -0.37978
 Alpha  occ. eigenvalues --   -0.36893  -0.34749  -0.34355  -0.28000  -0.26632
 Alpha  occ. eigenvalues --   -0.23110  -0.21733  -0.18390
 Alpha virt. eigenvalues --   -0.04056   0.03408   0.08856   0.10004   0.10292
 Alpha virt. eigenvalues --    0.11099   0.12426   0.13741   0.13997   0.15300
 Alpha virt. eigenvalues --    0.15773   0.16169   0.16575   0.17278   0.17945

 Mulliken charges:
               1
     1  C   -0.321782
     2  N   -0.279716
     3  C    0.088205
     4  N   -0.206841
     5  N   -0.259949
     6  C   -0.067219
     7  N   -0.064868
     8  C   -0.333136
     9  C   -0.073306
    10  N   -0.112671
    11  N   -0.274081
    12  H    0.130643
    13  H    0.114862
    14  H    0.133074
    15  H    0.242074
    16  H    0.079796
    17  H    0.210651
    18  H    0.082184
    19  H    0.101294
    20  H    0.142191
    21  H    0.122758
    22  H    0.095038
    23  H    0.116176
    24  H    0.090389
    25  H    0.244234
 Sum of Mulliken charges =  -0.00000

 Dipole moment (field-independent basis, Debye):
    X=             -1.9008    Y=             -1.5976    Z=             -0.3108  Tot=              2.5024
 Quadrupole moment (field-independent basis, Debye-Ang):
   XX=            -55.4698   YY=            -67.1919   ZZ=            -65.9528
   XY=              3.9176   XZ=             -2.4213   YZ=              0.3410

  Exact polarizability: 170.248   4.713  77.805  -1.351   3.072  81.589
 Approx polarizability: 201.413   8.192 114.985   3.167   7.241 127.332

                      1                      2                      3
                      A                      A                      A
 Frequencies --     28.0550                41.3763                58.0969
 Red. masses --      4.6590                 4.9836                 2.6529
 Frc consts  --      0.0022                 0.0050                 0.0053
 IR Inten    --      0.3103                 0.4260                 1.9183

                      4                      5                      6
                      A                      A                      A
 Frequencies --     76.8946               108.8959               132.1434
 Red. masses --      4.6509                 2.4081                 2.7404
 Frc consts  --      0.0162                 0.0168                 0.0282
 IR Inten    --      0.3378                 0.0937                 2.9914

                      7                      8                      9
                      A                      A                      A
 Frequencies --    151.3238               195.1818               220.9438
 Red. masses --      1.8573                 1.8101                 1.1178
 Frc consts  --      0.0251                 0.0406                 0.0321
 IR Inten    --     14.4848                10.5144                 2.5186

                     10                     11                     12
                      A                      A                      A
 Frequencies --    233.7837               240.9884               264.8988
 Red. masses --      2.6597                 3.0231                 4.8324
 Frc consts  --      0.0856                 0.1034                 0.1998
 IR Inten    --      4.4389                 4.5653                 1.2573

                     13                     14                     15
                      A                      A                      A
 Frequencies --    327.3256               373.0084               425.2138
 Red. masses --      3.1513                 2.5402                 3.8224
 Frc consts  --      0.1989                 0.2082                 0.4072
 IR Inten    --      3.0076                 3.7323                 2.1062

                     16                     17                     18
                      A                      A                      A
 Frequencies --    471.9798               517.9893               546.5217
 Red. masses --      2.8976                 2.9045                 3.9362
 Frc consts  --      0.3803                 0.4592                 0.6927
 IR Inten    --     33.6572                35.4901                 8.9924

                     19                     20                     21
                      A                      A                      A
 Frequencies --    640.0288               691.2919               792.3410
 Red. masses --      2.8897                 1.5571                 1.4545
 Frc consts  --      0.6974                 0.4384                 0.5380
 IR Inten    --     20.4330               100.8709                78.3503

                     22                     23                     24
                      A                      A                      A
 Frequencies --    835.9489               909.3205               956.4895
 Red. masses --      1.7438                 2.9432                 1.4414
 Frc consts  --      0.7180                 1.4338                 0.7770
 IR Inten    --     26.6939                 4.6928                28.3857

                     25                     26                     27
                      A                      A                      A
 Frequencies --    995.8019              1016.6149              1026.9804
 Red. masses --      2.2659                 2.2277                 1.6737
 Frc consts  --      1.3238                 1.3565                 1.0400
 IR Inten    --     12.4451                20.5719                12.1448

                     28                     29                     30
                      A                      A                      A
 Frequencies --   1074.3040              1077.4133              1117.3107
 Red. masses --      1.6300                 1.9658                 2.4056
 Frc consts  --      1.1084                 1.3445                 1.7693
 IR Inten    --     78.1979                95.8578                21.4674

                     31                     32                     33
                      A                      A                      A
 Frequencies --   1140.1409              1153.3872              1166.7120
 Red. masses --      1.8173                 1.4776                 1.9099
 Frc consts  --      1.3919                 1.1581                 1.5317
 IR Inten    --     59.8364                 5.5330                76.8008

                     34                     35                     36
                      A                      A                      A
 Frequencies --   1177.5363              1221.4231              1242.2627
 Red. masses --      2.4246                 1.6563                 1.5329
 Frc consts  --      1.9808                 1.4559                 1.3938
 IR Inten    --     64.5639                36.1621                29.5684

                     37                     38                     39
                      A                      A                      A
 Frequencies --   1302.8188              1315.5233              1318.6025
 Red. masses --      2.1708                 1.5899                 1.6001
 Frc consts  --      2.1709                 1.6212                 1.6392
 IR Inten    --     89.1603                 7.3664                17.7693

                     40                     41                     42
                      A                      A                      A
 Frequencies --   1363.8644              1385.5807              1414.5773
 Red. masses --      1.3440                 1.4886                 1.2561
 Frc consts  --      1.4730                 1.6838                 1.4809
 IR Inten    --     32.6130                87.2956                21.2909

                     43                     44                     45
                      A                      A                      A
 Frequencies --   1444.2960              1461.0861              1463.2513
 Red. masses --      1.2045                 1.2754                 1.1533
 Frc consts  --      1.4803                 1.6041                 1.4549
 IR Inten    --      5.0999                 1.2000                12.1172

                     46                     47                     48
                      A                      A                      A
 Frequencies --   1477.7621              1490.6014              1490.7428
 Red. masses --      1.1633                 1.2694                 1.0755
 Frc consts  --      1.4967                 1.6618                 1.4082
 IR Inten    --      2.9798                32.9860                19.6611

                     49                     50                     51
                      A                      A                      A
 Frequencies --   1496.3247              1502.7301              1505.7936
 Red. masses --      1.1178                 1.2608                 1.0639
 Frc consts  --      1.4746                 1.6775                 1.4213
 IR Inten    --     11.0648                36.2357                 7.1367

                     52                     53                     54
                      A                      A                      A
 Frequencies --   1521.8021              1523.3383              1651.7409
 Red. masses --      1.1117                 1.1002                10.0455
 Frc consts  --      1.5169                 1.5042                16.1475
 IR Inten    --     13.4681                11.3436                 4.7719

                     55                     56                     57
                      A                      A                      A
 Frequencies --   1741.3596              2923.2440              2941.7739
 Red. masses --      6.4334                 1.0672                 1.0587
 Frc consts  --     11.4939                 5.3729                 5.3984
 IR Inten    --    174.7768                34.3634                65.9179

                     58                     59                     60
                      A                      A                      A
 Frequencies --   2951.1922              2979.8871              2981.7310
 Red. masses --      1.0560                 1.0574                 1.1017
 Frc consts  --      5.4190                 5.5323                 5.7712
 IR Inten    --     88.3685                89.4779                75.1220

                     61                     62                     63
                      A                      A                      A
 Frequencies --   3031.7841              3051.8479              3072.1512
 Red. masses --      1.0861                 1.0902                 1.0803
 Frc consts  --      5.8820                 5.9825                 6.0073
 IR Inten    --     35.9435                19.3243                30.9273

                     64                     65                     66
                      A                      A                      A
 Frequencies --   3086.7853              3114.4953              3142.7700
 Red. masses --      1.0737                 1.1020                 1.1012
 Frc consts  --      6.0279                 6.2979                 6.4081
 IR Inten    --     23.4226                23.8263                10.2851

                     67                     68                     69
                      A                      A                      A
 Frequencies --   3242.7641              3411.1577              3578.0448
 Red. masses --      1.0738                 1.0737                 1.0742
 Frc consts  --      6.6530                 7.3608                 8.1026
 IR Inten    --     32.1956                 6.2155                13.1776

 - Thermochemistry -
 -------------------
 Temperature   298.150 Kelvin.  Pressure   1.00000 Atm.
 Atom     1 has atomic number  6 and mass  12.00000

 Molecular mass:   158.12799 amu.
 Principal axes and moments of inertia in atomic units:
                           1         2         3
     Eigenvalues --   395.970136000.401036165.91839
           X            0.99993   0.01146   0.00332
           Y           -0.01144   0.99992  -0.00587
           Z           -0.00338   0.00583   0.99998
 This molecule is an asymmetric top.
 Rotational symmetry number  1.
 Rotational temperatures (Kelvin)      0.21874     0.01443     0.01405
 Rotational constants (GHZ):           4.55777     0.30077     0.29270
 Zero-point vibrational energy     562432.4 (Joules/Mol)
                                  134.42457 (Kcal/Mol)
 Warning -- explicit consideration of  18 degrees of freedom as
           vibrations may cause significant error
 Vibrational temperatures:     40.36    59.53    83.59   110.63   156.68
          (Kelvin)            190.12   217.72   280.82   317.89   336.36
                              346.73   381.13   470.95   536.68   611.79
                              679.07   745.27   786.32   920.86   994.61
                             1140.00  1202.74  1308.31  1376.18  1432.74
                             1462.68  1477.60  1545.68  1550.16  1607.56
                             1640.41  1659.47  1678.64  1694.21  1757.36
                             1787.34  1874.47  1892.74  1897.17  1962.30
                             1993.54  2035.26  2078.02  2102.18  2105.29
                             2126.17  2144.64  2144.85  2152.88  2162.09
                             2166.50  2189.53  2191.74  2376.49  2505.43
                             4205.90  4232.56  4246.11  4287.39  4290.05
                             4362.06  4390.93  4420.14  4441.20  4481.06
                             4521.74  4665.61  4907.90  5148.01

 Zero-point correction=                           0.214219 (Hartree/Particle)
 Thermal correction to Energy=                    0.227557
 Thermal correction to Enthalpy=                  0.228501
 Thermal correction to Gibbs Free Energy=         0.172664
 Sum of electronic and zero-point Energies=           -527.171625
 Sum of electronic and thermal Energies=              -527.158287
 Sum of electronic and thermal Enthalpies=            -527.157343
 Sum of electronic and thermal Free Energies=         -527.213180

                     E (Thermal)             CV                S
                      KCal/Mol        Cal/Mol-Kelvin    Cal/Mol-Kelvin
 Total                  142.794             45.744            117.518
 Electronic               0.000              0.000              0.000
 Translational            0.889              2.981             41.084
 Rotational               0.889              2.981             31.061
 Vibrational            141.017             39.782             45.374
 Vibration     1          0.593              1.984              5.962
 Vibration     2          0.594              1.981              5.192
 Vibration     3          0.596              1.974              4.521
 Vibration     4          0.599              1.965              3.969
 Vibration     5          0.606              1.942              3.289
 Vibration     6          0.612              1.921              2.915
 Vibration     7          0.619              1.901              2.656
 Vibration     8          0.636              1.847              2.178
 Vibration     9          0.648              1.809              1.951
 Vibration    10          0.654              1.789              1.850
 Vibration    11          0.658              1.778              1.796
 Vibration    12          0.671              1.737              1.629
 Vibration    13          0.711              1.621              1.273
 Vibration    14          0.744              1.528              1.067
 Vibration    15          0.787              1.415              0.874
 Vibration    16          0.829              1.312              0.732
 Vibration    17          0.873              1.210              0.615
 Vibration    18          0.902              1.147              0.551

 Optimization completed.
    -- Stationary point found.
 Normal termination of Gaussian 16 at Mon May 31 22:07:20 2021.
