 Gaussian 16, Revision A.03,
 Gaussian 16:  ES64L-G16RevA.03 25-Dec-2016

 -----------------------------
 # opt freq b3lyp/6-31g(2df,p)
 -----------------------------

 -------------------
 Title Card Required
 -------------------
 Symbolic Z-matrix:
 Charge =  0 Multiplicity = 1

 SCF Done:  E(RB3LYP) =  -464.495474802     A.U. after   12 cycles
 SCF Done:  E(RB3LYP) =  -464.502939753     A.U. after   11 cycles
 SCF Done:  E(RB3LYP) =  -464.509352075     A.U. after   10 cycles
 SCF Done:  E(RB3LYP) =  -464.512382229     A.U. after   10 cycles
 SCF Done:  E(RB3LYP) =  -464.516210715     A.U. after   11 cycles
 SCF Done:  E(RB3LYP) =  -464.518453830     A.U. after   13 cycles
 SCF Done:  E(RB3LYP) =  -464.521096120     A.U. after   10 cycles
 SCF Done:  E(RB3LYP) =  -464.523264230     A.U. after   11 cycles
 SCF Done:  E(RB3LYP) =  -464.524620595     A.U. after   13 cycles
 SCF Done:  E(RB3LYP) =  -464.526243619     A.U. after   10 cycles
 SCF Done:  E(RB3LYP) =  -464.527423757     A.U. after    9 cycles
 SCF Done:  E(RB3LYP) =  -464.527441738     A.U. after    9 cycles
 SCF Done:  E(RB3LYP) =  -464.527451658     A.U. after    9 cycles
 SCF Done:  E(RB3LYP) =  -464.527459630     A.U. after    9 cycles
 SCF Done:  E(RB3LYP) =  -464.527462435     A.U. after    8 cycles
 SCF Done:  E(RB3LYP) =  -464.527463218     A.U. after    8 cycles
 SCF Done:  E(RB3LYP) =  -464.527464091     A.U. after    8 cycles
 SCF Done:  E(RB3LYP) =  -464.527464183     A.U. after    7 cycles
 SCF Done:  E(RB3LYP) =  -464.527464204     A.U. after    6 cycles
 Optimization completed.
    -- Stationary point found.
 Normal termination of Gaussian 16 at Mon May 31 21:35:27 2021.

 ----------------------------------------------------------------------
 #N Geom=AllCheck Guess=TCheck SCRF=Check GenChk RB3LYP/6-31G(2df,p) Fr
 eq
 ----------------------------------------------------------------------

 Structure from the checkpoint file:  "CNCN1CCpCpCC1pCpC.chk"
 -------------------
 Title Card Required
 -------------------
 Charge =  0 Multiplicity = 1

                         Standard orientation:
 ---------------------------------------------------------------------
 Center     Atomic      Atomic             Coordinates (Angstroms)
 Number     Number       Type             X           Y           Z
 ---------------------------------------------------------------------
      1          6           0       -3.775710   -0.661845    0.080897
      2          7           0       -2.416391   -0.409466   -0.377256
      3          6           0       -1.456284   -0.287195    0.730219
      4          7           0       -0.076715   -0.244983    0.337838
      5          6           0        0.419025   -1.324087   -0.503027
      6          6           0        1.917857   -1.011101   -0.609176
      7          6           0        2.707012   -1.553941    0.587936
      8          6           0        1.916813    0.535063   -0.683532
      9          6           0        0.594190    1.025439   -0.009743
     10          6           0       -0.203932    1.904114   -0.999509
     11          6           0        0.876414    1.836397    1.266226
     12          1           0       -4.452386   -0.707443   -0.777564
     13          1           0       -4.171393    0.092136    0.786501
     14          1           0       -3.816077   -1.633465    0.587237
     15          1           0       -2.400583    0.437206   -0.934821
     16          1           0       -1.616539   -1.175510    1.359722
     17          1           0       -1.660990    0.588383    1.371224
     18          1           0       -0.054870   -1.351430   -1.498129
     19          1           0        0.216247   -2.292308   -0.028225
     20          1           0        2.336017   -1.435009   -1.528012
     21          1           0        2.263733   -1.215669    1.529733
     22          1           0        3.749190   -1.217982    0.561506
     23          1           0        2.709578   -2.649382    0.592917
     24          1           0        1.941652    0.862524   -1.727302
     25          1           0        2.795789    0.966208   -0.195491
     26          1           0       -0.451724    1.348754   -1.910074
     27          1           0        0.382233    2.781509   -1.294609
     28          1           0       -1.133068    2.272537   -0.549478
     29          1           0        1.475308    1.251210    1.968998
     30          1           0       -0.051973    2.123986    1.771329
     31          1           0        1.419283    2.757829    1.028725
 ---------------------------------------------------------------------

 SCF Done:  E(RB3LYP) =  -464.527464204     A.U. after    1 cycles

 The electronic state is 1-A.
 Alpha  occ. eigenvalues --  -14.30275 -14.30222 -10.22014 -10.21380 -10.19518
 Alpha  occ. eigenvalues --  -10.18857 -10.17809 -10.17132 -10.17098 -10.16524
 Alpha  occ. eigenvalues --  -10.16407  -0.93141  -0.87706  -0.78213  -0.77279
 Alpha  occ. eigenvalues --   -0.69011  -0.68284  -0.66913  -0.64755  -0.61685
 Alpha  occ. eigenvalues --   -0.55751  -0.53074  -0.49109  -0.46949  -0.46245
 Alpha  occ. eigenvalues --   -0.43745  -0.43440  -0.42086  -0.41360  -0.41006
 Alpha  occ. eigenvalues --   -0.39468  -0.38844  -0.38497  -0.37714  -0.36629
 Alpha  occ. eigenvalues --   -0.35647  -0.34272  -0.33889  -0.32964  -0.31467
 Alpha  occ. eigenvalues --   -0.31011  -0.30354  -0.21647  -0.19671
 Alpha virt. eigenvalues --    0.07180   0.09608   0.11020   0.11766   0.12700
 Alpha virt. eigenvalues --    0.13090   0.13715   0.14261   0.15451   0.15745
 Alpha virt. eigenvalues --    0.16586   0.17231   0.17919   0.18066   0.18780

 Mulliken charges:
               1
     1  C   -0.306860
     2  N   -0.281448
     3  C   -0.134483
     4  N   -0.072751
     5  C   -0.160726
     6  C    0.020190
     7  C   -0.391859
     8  C   -0.274600
     9  C    0.323028
    10  C   -0.438009
    11  C   -0.420648
    12  H    0.116203
    13  H    0.089337
    14  H    0.120088
    15  H    0.211923
    16  H    0.094630
    17  H    0.081505
    18  H    0.083909
    19  H    0.088280
    20  H    0.062636
    21  H    0.125653
    22  H    0.105348
    23  H    0.107310
    24  H    0.092300
    25  H    0.094213
    26  H    0.117432
    27  H    0.111774
    28  H    0.105177
    29  H    0.116330
    30  H    0.107855
    31  H    0.106265
 Sum of Mulliken charges =  -0.00000

 Dipole moment (field-independent basis, Debye):
    X=             -0.1985    Y=              0.8375    Z=             -0.1951  Tot=              0.8825
 Quadrupole moment (field-independent basis, Debye-Ang):
   XX=            -69.2286   YY=            -70.8851   ZZ=            -71.8881
   XY=             -0.9742   XZ=             -1.2068   YZ=             -1.1951

  Exact polarizability: 127.101   0.490 110.429  -0.695  -0.189  98.083
 Approx polarizability: 159.228   2.325 155.711  -2.093   0.034 149.868

                      1                      2                      3
                      A                      A                      A
 Frequencies --     44.4545                70.0992                92.5916
 Red. masses --      2.5001                 2.6277                 2.7297
 Frc consts  --      0.0029                 0.0076                 0.0138
 IR Inten    --      0.0859                 1.9624                 1.0663

                      4                      5                      6
                      A                      A                      A
 Frequencies --    108.9761               163.9776               231.8050
 Red. masses --      2.0172                 2.8203                 1.2814
 Frc consts  --      0.0141                 0.0447                 0.0406
 IR Inten    --      0.8449                 1.8091                 1.1074

                      7                      8                      9
                      A                      A                      A
 Frequencies --    234.7630               244.8965               265.7261
 Red. masses --      1.0729                 1.0728                 2.4161
 Frc consts  --      0.0348                 0.0379                 0.1005
 IR Inten    --      0.0737                 0.0335                 0.0923

                     10                     11                     12
                      A                      A                      A
 Frequencies --    283.3106               292.8316               316.6027
 Red. masses --      2.4813                 2.4147                 1.2635
 Frc consts  --      0.1173                 0.1220                 0.0746
 IR Inten    --      1.1884                 0.8905                 0.4267

                     13                     14                     15
                      A                      A                      A
 Frequencies --    337.5169               365.5519               384.5789
 Red. masses --      1.8022                 2.0314                 1.8229
 Frc consts  --      0.1210                 0.1599                 0.1588
 IR Inten    --      0.5348                 0.7646                 0.1619

                     16                     17                     18
                      A                      A                      A
 Frequencies --    404.5442               454.2970               494.1057
 Red. masses --      2.2540                 2.2691                 3.2938
 Frc consts  --      0.2173                 0.2759                 0.4738
 IR Inten    --      0.0956                 1.4328                 7.4787

                     19                     20                     21
                      A                      A                      A
 Frequencies --    611.8810               694.9079               739.9456
 Red. masses --      3.6276                 3.6955                 3.2591
 Frc consts  --      0.8002                 1.0514                 1.0513
 IR Inten    --      0.7849                 1.7369                 1.4662

                     22                     23                     24
                      A                      A                      A
 Frequencies --    787.0830               819.6859               853.3403
 Red. masses --      1.2946                 2.6921                 2.1780
 Frc consts  --      0.4725                 1.0657                 0.9344
 IR Inten    --     70.9920                 0.1475                 2.2230

                     25                     26                     27
                      A                      A                      A
 Frequencies --    884.4607               924.9281               938.1182
 Red. masses --      1.8596                 1.4571                 1.9603
 Frc consts  --      0.8571                 0.7344                 1.0165
 IR Inten    --      0.7411                 0.7659                 5.3105

                     28                     29                     30
                      A                      A                      A
 Frequencies --    943.2144               960.1447               981.6702
 Red. masses --      1.7922                 2.0159                 1.7157
 Frc consts  --      0.9394                 1.0949                 0.9741
 IR Inten    --      2.1347                13.3343                 7.9654

                     31                     32                     33
                      A                      A                      A
 Frequencies --    990.7886              1013.4520              1047.6669
 Red. masses --      1.7008                 1.3190                 1.5830
 Frc consts  --      0.9837                 0.7982                 1.0237
 IR Inten    --     13.1968                 0.8262                 1.6158

                     34                     35                     36
                      A                      A                      A
 Frequencies --   1070.3713              1105.2376              1112.3476
 Red. masses --      1.4964                 1.7156                 3.3320
 Frc consts  --      1.0101                 1.2347                 2.4291
 IR Inten    --      6.0160                 1.9314                46.1171

                     37                     38                     39
                      A                      A                      A
 Frequencies --   1136.3417              1156.2503              1175.7944
 Red. masses --      1.6649                 1.4525                 1.5150
 Frc consts  --      1.2667                 1.1441                 1.2340
 IR Inten    --     28.4573                25.7180                16.4053

                     40                     41                     42
                      A                      A                      A
 Frequencies --   1192.8845              1206.3037              1224.5762
 Red. masses --      2.1701                 2.7780                 1.9860
 Frc consts  --      1.8194                 2.3817                 1.7547
 IR Inten    --     14.6923                14.3364                30.4585

                     43                     44                     45
                      A                      A                      A
 Frequencies --   1249.4123              1277.0196              1290.3417
 Red. masses --      1.9706                 1.7454                 1.5959
 Frc consts  --      1.8125                 1.6770                 1.5655
 IR Inten    --     24.9540                12.8101                 8.9052

                     46                     47                     48
                      A                      A                      A
 Frequencies --   1295.8452              1333.3233              1353.4342
 Red. masses --      2.3334                 1.3653                 1.5679
 Frc consts  --      2.3086                 1.4301                 1.6922
 IR Inten    --     42.3030                 8.5302                14.6922

                     49                     50                     51
                      A                      A                      A
 Frequencies --   1372.2582              1387.9803              1392.4355
 Red. masses --      1.3318                 1.4491                 1.3698
 Frc consts  --      1.4776                 1.6449                 1.5648
 IR Inten    --     14.2460                13.6488                10.5056

                     52                     53                     54
                      A                      A                      A
 Frequencies --   1404.0366              1408.6362              1417.0102
 Red. masses --      1.2422                 1.2679                 1.2327
 Frc consts  --      1.4428                 1.4823                 1.4583
 IR Inten    --     20.3830                 8.0283                 7.5926

                     55                     56                     57
                      A                      A                      A
 Frequencies --   1457.1155              1477.2449              1481.3244
 Red. masses --      1.1623                 1.1590                 1.0760
 Frc consts  --      1.4539                 1.4901                 1.3912
 IR Inten    --      1.7538                35.6801                 3.0108

                     58                     59                     60
                      A                      A                      A
 Frequencies --   1488.9243              1491.1909              1492.0615
 Red. masses --      1.0595                 1.0619                 1.0642
 Frc consts  --      1.3839                 1.3913                 1.3959
 IR Inten    --      8.9538                 1.7666                 0.7658

                     61                     62                     63
                      A                      A                      A
 Frequencies --   1495.9083              1498.5047              1504.2282
 Red. masses --      1.0803                 1.0658                 1.0528
 Frc consts  --      1.4243                 1.4100                 1.4035
 IR Inten    --      2.6288                 9.8363                 1.3518

                     64                     65                     66
                      A                      A                      A
 Frequencies --   1507.0949              1510.6117              1518.3068
 Red. masses --      1.0637                 1.0576                 1.0495
 Frc consts  --      1.4235                 1.4220                 1.4254
 IR Inten    --      3.8662                 2.2099                 8.6375

                     67                     68                     69
                      A                      A                      A
 Frequencies --   1527.1574              2931.5932              2945.5853
 Red. masses --      1.0918                 1.0606                 1.0661
 Frc consts  --      1.5003                 5.3704                 5.4499
 IR Inten    --      1.7725                77.0147                92.8625

                     70                     71                     72
                      A                      A                      A
 Frequencies --   2959.7432              2997.4269              3019.0515
 Red. masses --      1.0709                 1.0935                 1.0348
 Frc consts  --      5.5271                 5.7886                 5.5570
 IR Inten    --     49.8088                50.7138                20.4301

                     73                     74                     75
                      A                      A                      A
 Frequencies --   3028.0379              3030.4291              3035.9452
 Red. masses --      1.0376                 1.0366                 1.0867
 Frc consts  --      5.6056                 5.6090                 5.9011
 IR Inten    --     20.1113                22.5130                50.2377

                     76                     77                     78
                      A                      A                      A
 Frequencies --   3040.4171              3049.6632              3054.1580
 Red. masses --      1.0743                 1.0724                 1.0714
 Frc consts  --      5.8513                 5.8763                 5.8884
 IR Inten    --     17.9044                43.5929                33.1355

                     79                     80                     81
                      A                      A                      A
 Frequencies --   3081.8985              3088.3579              3093.0528
 Red. masses --      1.1023                 1.1030                 1.1014
 Frc consts  --      6.1687                 6.1985                 6.2081
 IR Inten    --      9.9506                24.1930                13.3104

                     82                     83                     84
                      A                      A                      A
 Frequencies --   3094.7422              3098.2303              3099.0680
 Red. masses --      1.1005                 1.1018                 1.1006
 Frc consts  --      6.2098                 6.2312                 6.2278
 IR Inten    --     62.9995                44.3567                27.2577

                     85                     86                     87
                      A                      A                      A
 Frequencies --   3107.5557              3115.6487              3535.1717
 Red. masses --      1.1009                 1.1012                 1.0734
 Frc consts  --      6.2636                 6.2982                 7.9036
 IR Inten    --     45.9869                22.5835                 0.3787

 - Thermochemistry -
 -------------------
 Temperature   298.150 Kelvin.  Pressure   1.00000 Atm.
 Atom     1 has atomic number  6 and mass  12.00000

 Molecular mass:   156.16265 amu.
 Principal axes and moments of inertia in atomic units:
                           1         2         3
     Eigenvalues --  1127.361422403.597962893.62254
           X            0.99999  -0.00415   0.00153
           Y            0.00417   0.99994  -0.01013
           Z           -0.00149   0.01013   0.99995
 This molecule is an asymmetric top.
 Rotational symmetry number  1.
 Warning -- assumption of classical behavior for rotation
           may cause significant error
 Rotational temperatures (Kelvin)      0.07683     0.03604     0.02993
 Rotational constants (GHZ):           1.60085     0.75085     0.62370
 Zero-point vibrational energy     750053.8 (Joules/Mol)
                                  179.26717 (Kcal/Mol)
 Warning -- explicit consideration of  19 degrees of freedom as
           vibrations may cause significant error
 Vibrational temperatures:     63.96   100.86   133.22   156.79   235.93
          (Kelvin)            333.52   337.77   352.35   382.32   407.62
                              421.32   455.52   485.61   525.95   553.32
                              582.05   653.63   710.91   880.36   999.82
                             1064.62  1132.44  1179.35  1227.77  1272.54
                             1330.77  1349.74  1357.08  1381.43  1412.40
                             1425.52  1458.13  1507.36  1540.03  1590.19
                             1600.42  1634.94  1663.59  1691.71  1716.29
                             1735.60  1761.89  1797.63  1837.35  1856.51
                             1864.43  1918.35  1947.29  1974.37  1996.99
                             2003.40  2020.10  2026.71  2038.76  2096.46
                             2125.43  2131.30  2142.23  2145.49  2146.74
                             2152.28  2156.01  2164.25  2168.37  2173.43
                             2184.50  2197.24  4217.91  4238.04  4258.41
                             4312.63  4343.74  4356.67  4360.11  4368.05
                             4374.48  4387.79  4394.25  4434.16  4443.46
                             4450.21  4452.64  4457.66  4458.87  4471.08
                             4482.72  5086.32

 Zero-point correction=                           0.285680 (Hartree/Particle)
 Thermal correction to Energy=                    0.298660
 Thermal correction to Enthalpy=                  0.299604
 Thermal correction to Gibbs Free Energy=         0.247016
 Sum of electronic and zero-point Energies=           -464.241784
 Sum of electronic and thermal Energies=              -464.228804
 Sum of electronic and thermal Enthalpies=            -464.227860
 Sum of electronic and thermal Free Energies=         -464.280449

                     E (Thermal)             CV                S
                      KCal/Mol        Cal/Mol-Kelvin    Cal/Mol-Kelvin
 Total                  187.412             49.460            110.683
 Electronic               0.000              0.000              0.000
 Translational            0.889              2.981             41.047
 Rotational               0.889              2.981             30.440
 Vibrational            185.635             43.499             39.196
 Vibration     1          0.595              1.980              5.050
 Vibration     2          0.598              1.968              4.151
 Vibration     3          0.602              1.954              3.605
 Vibration     4          0.606              1.942              3.287
 Vibration     5          0.623              1.887              2.503
 Vibration     6          0.653              1.792              1.865
 Vibration     7          0.655              1.788              1.842
 Vibration     8          0.660              1.771              1.767
 Vibration     9          0.672              1.736              1.624
 Vibration    10          0.682              1.705              1.514
 Vibration    11          0.688              1.687              1.458
 Vibration    12          0.703              1.642              1.328
 Vibration    13          0.718              1.601              1.224
 Vibration    14          0.739              1.543              1.098
 Vibration    15          0.754              1.503              1.021
 Vibration    16          0.770              1.460              0.946
 Vibration    17          0.813              1.351              0.783
 Vibration    18          0.850              1.263              0.673
 Vibration    19          0.971              1.007              0.430

 Optimization completed.
    -- Stationary point found.
 Normal termination of Gaussian 16 at Mon May 31 22:55:02 2021.
