 Gaussian 16, Revision A.03,
 Gaussian 16:  ES64L-G16RevA.03 25-Dec-2016

 -----------------------------
 # opt freq b3lyp/6-31g(2df,p)
 -----------------------------

 -------------------
 Title Card Required
 -------------------
 Symbolic Z-matrix:
 Charge =  0 Multiplicity = 1

 SCF Done:  E(RB3LYP) =  -435.138217186     A.U. after   12 cycles
 SCF Done:  E(RB3LYP) =  -435.157662649     A.U. after   11 cycles
 SCF Done:  E(RB3LYP) =  -435.172528317     A.U. after   11 cycles
 SCF Done:  E(RB3LYP) =  -435.179240690     A.U. after   11 cycles
 SCF Done:  E(RB3LYP) =  -435.183598983     A.U. after   11 cycles
 SCF Done:  E(RB3LYP) =  -435.186052210     A.U. after   11 cycles
 SCF Done:  E(RB3LYP) =  -435.187210828     A.U. after   11 cycles
 SCF Done:  E(RB3LYP) =  -435.188365867     A.U. after   11 cycles
 SCF Done:  E(RB3LYP) =  -435.188930349     A.U. after   11 cycles
 SCF Done:  E(RB3LYP) =  -435.189434993     A.U. after   10 cycles
 SCF Done:  E(RB3LYP) =  -435.192190141     A.U. after   10 cycles
 SCF Done:  E(RB3LYP) =  -435.192467197     A.U. after   10 cycles
 SCF Done:  E(RB3LYP) =  -435.192727089     A.U. after   10 cycles
 SCF Done:  E(RB3LYP) =  -435.192805539     A.U. after   10 cycles
 SCF Done:  E(RB3LYP) =  -435.192862019     A.U. after    9 cycles
 SCF Done:  E(RB3LYP) =  -435.192901166     A.U. after    9 cycles
 SCF Done:  E(RB3LYP) =  -435.192904675     A.U. after    8 cycles
 SCF Done:  E(RB3LYP) =  -435.192906563     A.U. after    8 cycles
 SCF Done:  E(RB3LYP) =  -435.192906727     A.U. after    6 cycles
 Optimization completed.
    -- Stationary point found.
 Normal termination of Gaussian 16 at Tue Jun  1 08:54:11 2021.

 ----------------------------------------------------------------------
 #N Geom=AllCheck Guess=TCheck SCRF=Check GenChk RB3LYP/6-31G(2df,p) Fr
 eq
 ----------------------------------------------------------------------

 Structure from the checkpoint file:  "CNCNNCpCppNpN.chk"
 -------------------
 Title Card Required
 -------------------
 Charge =  0 Multiplicity = 1

                         Standard orientation:
 ---------------------------------------------------------------------
 Center     Atomic      Atomic             Coordinates (Angstroms)
 Number     Number       Type             X           Y           Z
 ---------------------------------------------------------------------
      1          6           0       -3.833365    0.499193    0.074557
      2          7           0       -2.613884   -0.040176   -0.515677
      3          6           0       -1.606818   -0.404658    0.481920
      4          7           0       -0.414690   -0.992940   -0.099923
      5          7           0        0.477657   -0.085376   -0.761733
      6          6           0        1.752508    0.124404   -0.023926
      7          6           0        1.551000    0.765457    1.363991
      8          7           0        2.391060   -1.185121    0.027871
      9          7           0        2.620814    0.986506   -0.804105
     10          1           0       -4.532505    0.780039   -0.718043
     11          1           0       -3.677495    1.379797    0.723468
     12          1           0       -4.314135   -0.274970    0.683669
     13          1           0       -2.225962    0.637958   -1.164708
     14          1           0       -2.071362   -1.148137    1.143797
     15          1           0       -1.292280    0.441268    1.116841
     16          1           0       -0.711108   -1.668656   -0.798527
     17          1           0        0.036848    0.823470   -0.894712
     18          1           0        0.919362    0.125924    1.985006
     19          1           0        1.076185    1.752338    1.290042
     20          1           0        2.516380    0.896436    1.861523
     21          1           0        1.737491   -1.831514    0.461680
     22          1           0        3.212350   -1.124972    0.621608
     23          1           0        2.234805    1.923627   -0.873783
     24          1           0        2.684782    0.600761   -1.742146
 ---------------------------------------------------------------------

 SCF Done:  E(RB3LYP) =  -435.192906727     A.U. after    1 cycles

 The electronic state is 1-A.
 Alpha  occ. eigenvalues --  -14.33938 -14.33218 -14.31827 -14.30102 -14.29062
 Alpha  occ. eigenvalues --  -10.25468 -10.23200 -10.20576 -10.16767  -0.97685
 Alpha  occ. eigenvalues --   -0.91765  -0.88398  -0.82775  -0.77341  -0.70755
 Alpha  occ. eigenvalues --   -0.67500  -0.62843  -0.57451  -0.51807  -0.50959
 Alpha  occ. eigenvalues --   -0.48859  -0.47859  -0.45098  -0.43805  -0.41543
 Alpha  occ. eigenvalues --   -0.41298  -0.40664  -0.38978  -0.38391  -0.37673
 Alpha  occ. eigenvalues --   -0.36979  -0.36160  -0.26826  -0.24224  -0.23307
 Alpha  occ. eigenvalues --   -0.23001  -0.21359
 Alpha virt. eigenvalues --    0.05801   0.08983   0.10790   0.11051   0.12723
 Alpha virt. eigenvalues --    0.13365   0.13867   0.14883   0.15971   0.16181
 Alpha virt. eigenvalues --    0.17403   0.17959   0.18817   0.19216   0.20708

 Mulliken charges:
               1
     1  C   -0.310280
     2  N   -0.285444
     3  C   -0.100335
     4  N   -0.269732
     5  N   -0.306941
     6  C    0.287713
     7  C   -0.401383
     8  N   -0.501280
     9  N   -0.511145
    10  H    0.122042
    11  H    0.094861
    12  H    0.125059
    13  H    0.214226
    14  H    0.107688
    15  H    0.087885
    16  H    0.234564
    17  H    0.188065
    18  H    0.122936
    19  H    0.090524
    20  H    0.116817
    21  H    0.227377
    22  H    0.222848
    23  H    0.212325
    24  H    0.231610
 Sum of Mulliken charges =  -0.00000

 Dipole moment (field-independent basis, Debye):
    X=             -2.0635    Y=              1.7176    Z=              0.8624  Tot=              2.8199
 Quadrupole moment (field-independent basis, Debye-Ang):
   XX=            -60.7653   YY=            -54.6651   ZZ=            -56.4298
   XY=             -1.1063   XZ=              1.7752   YZ=             -4.1875

  Exact polarizability: 102.820   0.069  77.581  -1.470  -1.791  73.128
 Approx polarizability: 123.390   1.307 116.986  -2.098  -3.138 107.279

                      1                      2                      3
                      A                      A                      A
 Frequencies --     57.7175                59.4755               102.4598
 Red. masses --      3.0956                 3.0144                 1.9878
 Frc consts  --      0.0061                 0.0063                 0.0123
 IR Inten    --      0.0616                 0.9297                 1.6773

                      4                      5                      6
                      A                      A                      A
 Frequencies --    111.8124               221.8147               235.2710
 Red. masses --      2.9876                 3.4004                 1.3531
 Frc consts  --      0.0220                 0.0986                 0.0441
 IR Inten    --      2.0963                 1.8837                 3.2479

                      7                      8                      9
                      A                      A                      A
 Frequencies --    256.5262               276.1209               289.5647
 Red. masses --      1.1759                 1.1521                 2.2175
 Frc consts  --      0.0456                 0.0518                 0.1096
 IR Inten    --     37.3104                11.0585                 3.4130

                     10                     11                     12
                      A                      A                      A
 Frequencies --    312.8221               333.2408               379.7781
 Red. masses --      1.5918                 1.3933                 2.2933
 Frc consts  --      0.0918                 0.0912                 0.1949
 IR Inten    --      6.7342                11.3648                12.4622

                     13                     14                     15
                      A                      A                      A
 Frequencies --    417.3743               478.1006               503.3527
 Red. masses --      2.1448                 2.4875                 2.4853
 Frc consts  --      0.2201                 0.3350                 0.3710
 IR Inten    --      6.5539                10.6744                 2.4655

                     16                     17                     18
                      A                      A                      A
 Frequencies --    514.6287               580.3415               698.3178
 Red. masses --      2.6018                 2.6793                 2.9192
 Frc consts  --      0.4060                 0.5317                 0.8387
 IR Inten    --      1.7753                11.5187                34.6828

                     19                     20                     21
                      A                      A                      A
 Frequencies --    763.6793               797.6237               853.4727
 Red. masses --      1.4051                 2.4844                 1.5512
 Frc consts  --      0.4828                 0.9312                 0.6657
 IR Inten    --     86.2637                11.3887               109.8840

                     22                     23                     24
                      A                      A                      A
 Frequencies --    872.3444               923.1200               945.3697
 Red. masses --      1.7843                 1.4224                 2.0256
 Frc consts  --      0.8000                 0.7142                 1.0666
 IR Inten    --    200.1702               135.5215                 1.5104

                     25                     26                     27
                      A                      A                      A
 Frequencies --    956.6619               983.7527              1000.1567
 Red. masses --      1.8179                 1.4779                 1.5674
 Frc consts  --      0.9803                 0.8427                 0.9238
 IR Inten    --     31.4292                53.3615                20.4134

                     28                     29                     30
                      A                      A                      A
 Frequencies --   1003.6807              1102.7983              1110.0636
 Red. masses --      1.7570                 1.7699                 2.7440
 Frc consts  --      1.0428                 1.2682                 1.9922
 IR Inten    --     39.2351                24.6777                11.9520

                     31                     32                     33
                      A                      A                      A
 Frequencies --   1123.5994              1145.6491              1180.7407
 Red. masses --      1.8486                 3.3619                 1.7220
 Frc consts  --      1.3750                 2.5998                 1.4144
 IR Inten    --     14.7294                78.4316                10.7929

                     34                     35                     36
                      A                      A                      A
 Frequencies --   1219.3734              1277.2717              1306.7493
 Red. masses --      1.9306                 2.4154                 1.3863
 Frc consts  --      1.6913                 2.3217                 1.3947
 IR Inten    --      1.6233                60.0458                 1.4774

                     37                     38                     39
                      A                      A                      A
 Frequencies --   1319.3779              1331.8782              1391.3773
 Red. masses --      1.6999                 1.6801                 1.2694
 Frc consts  --      1.7435                 1.7560                 1.4479
 IR Inten    --     30.7166                41.6294                17.3190

                     40                     41                     42
                      A                      A                      A
 Frequencies --   1393.8530              1456.4644              1471.0234
 Red. masses --      1.2835                 1.1665                 1.1832
 Frc consts  --      1.4692                 1.4579                 1.5085
 IR Inten    --     13.3724                 3.5911                21.0210

                     43                     44                     45
                      A                      A                      A
 Frequencies --   1484.4817              1488.6286              1491.8158
 Red. masses --      1.1156                 1.0528                 1.0701
 Frc consts  --      1.4484                 1.3746                 1.4032
 IR Inten    --     10.6964                11.3338                 1.1527

                     46                     47                     48
                      A                      A                      A
 Frequencies --   1493.5684              1505.4824              1517.4121
 Red. masses --      1.0871                 1.1551                 1.1306
 Frc consts  --      1.4288                 1.5424                 1.5337
 IR Inten    --      1.7969                 9.0116                11.7555

                     49                     50                     51
                      A                      A                      A
 Frequencies --   1519.0396              1627.4246              1640.2198
 Red. masses --      1.0674                 1.1135                 1.1113
 Frc consts  --      1.4512                 1.7375                 1.7615
 IR Inten    --      9.3950                52.8840                26.6758

                     52                     53                     54
                      A                      A                      A
 Frequencies --   2943.2762              2961.7415              3019.3725
 Red. masses --      1.0592                 1.0669                 1.0426
 Frc consts  --      5.4063                 5.5138                 5.6004
 IR Inten    --     72.3906                69.1184                24.8097

                     55                     56                     57
                      A                      A                      A
 Frequencies --   3026.6730              3055.0801              3092.0378
 Red. masses --      1.0937                 1.0745                 1.0933
 Frc consts  --      5.9032                 5.9088                 6.1584
 IR Inten    --     44.8029                37.8947                29.0320

                     58                     59                     60
                      A                      A                      A
 Frequencies --   3105.6573              3126.9867              3452.3573
 Red. masses --      1.1005                 1.1013                 1.0742
 Frc consts  --      6.2540                 6.3445                 7.5431
 IR Inten    --     26.2080                21.5813                 5.5482

                     61                     62                     63
                      A                      A                      A
 Frequencies --   3487.3382              3493.6249              3496.5243
 Red. masses --      1.0479                 1.0488                 1.0739
 Frc consts  --      7.5086                 7.5418                 7.7354
 IR Inten    --      1.7288                 4.0671                 2.8655

                     64                     65                     66
                      A                      A                      A
 Frequencies --   3506.4648              3577.1911              3581.3918
 Red. masses --      1.0736                 1.0927                 1.0922
 Frc consts  --      7.7772                 8.2386                 8.2538
 IR Inten    --      0.8201                 0.9852                 4.2308

 - Thermochemistry -
 -------------------
 Temperature   298.150 Kelvin.  Pressure   1.00000 Atm.
 Atom     1 has atomic number  6 and mass  12.00000

 Molecular mass:   133.13275 amu.
 Principal axes and moments of inertia in atomic units:
                           1         2         3
     Eigenvalues --   523.620292556.006552604.08507
           X            0.99999  -0.00436   0.00177
           Y            0.00445   0.99857  -0.05321
           Z           -0.00154   0.05322   0.99858
 This molecule is an asymmetric top.
 Rotational symmetry number  1.
 Warning -- assumption of classical behavior for rotation
           may cause significant error
 Rotational temperatures (Kelvin)      0.16541     0.03389     0.03326
 Rotational constants (GHZ):           3.44666     0.70608     0.69304
 Zero-point vibrational energy     570933.3 (Joules/Mol)
                                  136.45633 (Kcal/Mol)
 Warning -- explicit consideration of  17 degrees of freedom as
           vibrations may cause significant error
 Vibrational temperatures:     83.04    85.57   147.42   160.87   319.14
          (Kelvin)            338.50   369.08   397.28   416.62   450.08
                              479.46   546.42   600.51   687.88   724.21
                              740.44   834.98  1004.72  1098.76  1147.60
                             1227.96  1255.11  1328.16  1360.18  1376.42
                             1415.40  1439.00  1444.07  1586.68  1597.13
                             1616.61  1648.33  1698.82  1754.41  1837.71
                             1880.12  1898.29  1916.28  2001.88  2005.44
                             2095.53  2116.47  2135.84  2141.80  2146.39
                             2148.91  2166.05  2183.22  2185.56  2341.50
                             2359.91  4234.72  4261.29  4344.20  4354.71
                             4395.58  4448.75  4468.35  4499.04  4967.17
                             5017.50  5026.55  5030.72  5045.02  5146.78
                             5152.82

 Zero-point correction=                           0.217457 (Hartree/Particle)
 Thermal correction to Energy=                    0.228909
 Thermal correction to Enthalpy=                  0.229853
 Thermal correction to Gibbs Free Energy=         0.180599
 Sum of electronic and zero-point Energies=           -434.975450
 Sum of electronic and thermal Energies=              -434.963998
 Sum of electronic and thermal Enthalpies=            -434.963053
 Sum of electronic and thermal Free Energies=         -435.012308

                     E (Thermal)             CV                S
                      KCal/Mol        Cal/Mol-Kelvin    Cal/Mol-Kelvin
 Total                  143.643             42.424            103.664
 Electronic               0.000              0.000              0.000
 Translational            0.889              2.981             40.571
 Rotational               0.889              2.981             29.634
 Vibrational            141.865             36.463             33.459
 Vibration     1          0.596              1.974              4.534
 Vibration     2          0.597              1.974              4.475
 Vibration     3          0.605              1.947              3.407
 Vibration     4          0.607              1.940              3.237
 Vibration     5          0.648              1.808              1.944
 Vibration     6          0.655              1.787              1.838
 Vibration     7          0.666              1.752              1.685
 Vibration     8          0.678              1.718              1.558
 Vibration     9          0.686              1.693              1.477
 Vibration    10          0.701              1.649              1.347
 Vibration    11          0.715              1.609              1.244
 Vibration    12          0.750              1.513              1.040
 Vibration    13          0.780              1.432              0.901
 Vibration    14          0.835              1.299              0.715
 Vibration    15          0.859              1.243              0.650
 Vibration    16          0.870              1.218              0.623
 Vibration    17          0.937              1.074              0.485

 Optimization completed.
    -- Stationary point found.
 Normal termination of Gaussian 16 at Tue Jun  1 09:27:16 2021.
