 Gaussian 16, Revision A.03,
 Gaussian 16:  ES64L-G16RevA.03 25-Dec-2016

 -----------------------------
 # opt freq b3lyp/6-31g(2df,p)
 -----------------------------

 -------------------
 Title Card Required
 -------------------
 Symbolic Z-matrix:
 Charge =  0 Multiplicity = 1

 SCF Done:  E(RB3LYP) =  -403.120831757     A.U. after   12 cycles
 SCF Done:  E(RB3LYP) =  -403.127235143     A.U. after   10 cycles
 SCF Done:  E(RB3LYP) =  -403.128064754     A.U. after   10 cycles
 SCF Done:  E(RB3LYP) =  -403.128329161     A.U. after   10 cycles
 SCF Done:  E(RB3LYP) =  -403.128424254     A.U. after   10 cycles
 SCF Done:  E(RB3LYP) =  -403.128450957     A.U. after    8 cycles
 SCF Done:  E(RB3LYP) =  -403.128470450     A.U. after    9 cycles
 SCF Done:  E(RB3LYP) =  -403.128493415     A.U. after    9 cycles
 SCF Done:  E(RB3LYP) =  -403.128505953     A.U. after   10 cycles
 SCF Done:  E(RB3LYP) =  -403.128551491     A.U. after    9 cycles
 SCF Done:  E(RB3LYP) =  -403.132267332     A.U. after   11 cycles
 SCF Done:  E(RB3LYP) =  -403.130186696     A.U. after   11 cycles
 SCF Done:  E(RB3LYP) =  -403.132777793     A.U. after   10 cycles
 SCF Done:  E(RB3LYP) =  -403.132865744     A.U. after   10 cycles
 SCF Done:  E(RB3LYP) =  -403.132891308     A.U. after    9 cycles
 SCF Done:  E(RB3LYP) =  -403.132901625     A.U. after    9 cycles
 SCF Done:  E(RB3LYP) =  -403.132905798     A.U. after    9 cycles
 SCF Done:  E(RB3LYP) =  -403.132906234     A.U. after    7 cycles
 SCF Done:  E(RB3LYP) =  -403.132906339     A.U. after    6 cycles
 Optimization completed.
    -- Stationary point found.
 Normal termination of Gaussian 16 at Tue Jun  1 22:12:10 2021.

 ----------------------------------------------------------------------
 #N Geom=AllCheck Guess=TCheck SCRF=Check GenChk RB3LYP/6-31G(2df,p) Fr
 eq
 ----------------------------------------------------------------------

 Structure from the checkpoint file:  "CNCNCpCpCNC.chk"
 -------------------
 Title Card Required
 -------------------
 Charge =  0 Multiplicity = 1

                         Standard orientation:
 ---------------------------------------------------------------------
 Center     Atomic      Atomic             Coordinates (Angstroms)
 Number     Number       Type             X           Y           Z
 ---------------------------------------------------------------------
      1          6           0        3.955282   -0.704203    0.513787
      2          7           0        2.540622   -0.796177    0.174446
      3          6           0        2.046661    0.385445   -0.539101
      4          7           0        0.668078    0.271589   -0.965419
      5          6           0       -0.359490    0.400055    0.078175
      6          6           0       -0.576682    1.877790    0.424026
      7          6           0       -1.643420   -0.255940   -0.449040
      8          7           0       -2.725824   -0.226654    0.525140
      9          6           0       -3.899716   -0.975004    0.094507
     10          1           0        4.258856   -1.592068    1.076068
     11          1           0        4.227265    0.186849    1.108688
     12          1           0        4.549297   -0.674830   -0.407251
     13          1           0        2.001933   -0.920015    1.026122
     14          1           0        2.679910    0.503433   -1.428478
     15          1           0        2.156711    1.314814    0.046606
     16          1           0        0.565738   -0.624892   -1.431934
     17          1           0       -0.094512   -0.134224    1.007814
     18          1           0       -0.953463    2.421489   -0.448852
     19          1           0        0.356300    2.355642    0.735691
     20          1           0       -1.283397    1.988131    1.252601
     21          1           0       -1.429030   -1.311629   -0.666698
     22          1           0       -1.907529    0.215247   -1.415637
     23          1           0       -2.996174    0.735715    0.696277
     24          1           0       -3.651320   -2.040676    0.030937
     25          1           0       -4.298751   -0.669477   -0.889873
     26          1           0       -4.697769   -0.863666    0.834633
 ---------------------------------------------------------------------

 SCF Done:  E(RB3LYP) =  -403.132906339     A.U. after    1 cycles

 The electronic state is 1-A.
 Alpha  occ. eigenvalues --  -14.31054 -14.30626 -14.30486 -10.22061 -10.20666
 Alpha  occ. eigenvalues --  -10.19969 -10.19763 -10.19696 -10.16958  -0.92296
 Alpha  occ. eigenvalues --   -0.89776  -0.86169  -0.75204  -0.68895  -0.67273
 Alpha  occ. eigenvalues --   -0.64034  -0.61131  -0.56618  -0.50722  -0.49022
 Alpha  occ. eigenvalues --   -0.47111  -0.44691  -0.43742  -0.42598  -0.41945
 Alpha  occ. eigenvalues --   -0.40705  -0.39022  -0.38167  -0.37902  -0.36694
 Alpha  occ. eigenvalues --   -0.36162  -0.34847  -0.33538  -0.32299  -0.22882
 Alpha  occ. eigenvalues --   -0.21952  -0.21337
 Alpha virt. eigenvalues --    0.07641   0.08972   0.10585   0.11485   0.11780
 Alpha virt. eigenvalues --    0.13863   0.14435   0.15365   0.16081   0.16662
 Alpha virt. eigenvalues --    0.17213   0.17244   0.18478   0.18645   0.19520

 Mulliken charges:
               1
     1  C   -0.307322
     2  N   -0.288311
     3  C   -0.105971
     4  N   -0.299845
     5  C    0.048897
     6  C   -0.381947
     7  C   -0.146126
     8  N   -0.288013
     9  C   -0.308749
    10  H    0.117421
    11  H    0.092127
    12  H    0.120662
    13  H    0.216076
    14  H    0.100232
    15  H    0.084721
    16  H    0.214311
    17  H    0.059442
    18  H    0.117669
    19  H    0.115638
    20  H    0.111937
    21  H    0.095061
    22  H    0.084438
    23  H    0.217819
    24  H    0.121004
    25  H    0.092905
    26  H    0.115923
 Sum of Mulliken charges =  -0.00000

 Dipole moment (field-independent basis, Debye):
    X=             -0.3142    Y=              0.3027    Z=              0.5020  Tot=              0.6651
 Quadrupole moment (field-independent basis, Debye-Ang):
   XX=            -53.8419   YY=            -59.2540   ZZ=            -59.8687
   XY=             -0.4546   XZ=              2.2310   YZ=              1.4915

  Exact polarizability: 114.508   0.585  82.920  -0.178   1.172  78.022
 Approx polarizability: 129.826   0.176 118.987  -1.399   1.591 119.310

                      1                      2                      3
                      A                      A                      A
 Frequencies --     29.4199                67.6269                81.5425
 Red. masses --      2.8414                 2.5460                 2.0718
 Frc consts  --      0.0014                 0.0069                 0.0081
 IR Inten    --      1.1098                 1.2922                 0.7645

                      4                      5                      6
                      A                      A                      A
 Frequencies --     89.9735               125.0773               160.0807
 Red. masses --      2.1274                 2.1657                 2.7159
 Frc consts  --      0.0101                 0.0200                 0.0410
 IR Inten    --      3.0684                 1.3985                 1.0429

                      7                      8                      9
                      A                      A                      A
 Frequencies --    225.8617               242.1567               255.4306
 Red. masses --      1.3426                 1.1041                 1.1969
 Frc consts  --      0.0404                 0.0381                 0.0460
 IR Inten    --      0.9531                 0.2293                 1.2900

                     10                     11                     12
                      A                      A                      A
 Frequencies --    283.5779               294.3519               331.7771
 Red. masses --      2.3531                 2.1085                 2.7397
 Frc consts  --      0.1115                 0.1076                 0.1777
 IR Inten    --      1.1074                 2.9106                 0.0537

                     13                     14                     15
                      A                      A                      A
 Frequencies --    372.6345               442.1846               488.2490
 Red. masses --      3.2078                 2.2959                 2.4303
 Frc consts  --      0.2624                 0.2645                 0.3413
 IR Inten    --      4.1597                 4.3973                11.9018

                     16                     17                     18
                      A                      A                      A
 Frequencies --    564.6883               742.9064               787.8501
 Red. masses --      2.6018                 1.6731                 1.2634
 Frc consts  --      0.4888                 0.5441                 0.4621
 IR Inten    --      1.0137               106.4600                68.7173

                     19                     20                     21
                      A                      A                      A
 Frequencies --    801.6463               840.7878               918.0711
 Red. masses --      1.2146                 2.3720                 1.3236
 Frc consts  --      0.4599                 0.9880                 0.6573
 IR Inten    --     72.7011                 1.5631                 3.4643

                     22                     23                     24
                      A                      A                      A
 Frequencies --    938.1037               972.7536               992.3151
 Red. masses --      1.8861                 1.7911                 2.0806
 Frc consts  --      0.9779                 0.9985                 1.2071
 IR Inten    --      6.2408                33.4883                 3.4506

                     25                     26                     27
                      A                      A                      A
 Frequencies --   1022.6382              1099.1695              1099.6916
 Red. masses --      1.6475                 1.9353                 1.5698
 Frc consts  --      1.0152                 1.3776                 1.1185
 IR Inten    --      1.4802                 7.4021                 2.1072

                     28                     29                     30
                      A                      A                      A
 Frequencies --   1114.8527              1117.6843              1148.9441
 Red. masses --      1.8848                 2.7454                 2.0732
 Frc consts  --      1.3802                 2.0207                 1.6125
 IR Inten    --     12.7216                24.5968                29.3852

                     31                     32                     33
                      A                      A                      A
 Frequencies --   1156.6350              1177.6737              1196.1084
 Red. masses --      2.1042                 2.1393                 2.2560
 Frc consts  --      1.6585                 1.7481                 1.9017
 IR Inten    --     63.5283                21.0737                46.3528

                     34                     35                     36
                      A                      A                      A
 Frequencies --   1215.9156              1228.5231              1284.8156
 Red. masses --      1.8221                 1.8404                 1.3484
 Frc consts  --      1.5872                 1.6366                 1.3114
 IR Inten    --      1.3484                 8.1226                23.7574

                     37                     38                     39
                      A                      A                      A
 Frequencies --   1303.0747              1336.3558              1378.5906
 Red. masses --      1.1931                 1.2382                 1.2831
 Frc consts  --      1.1936                 1.3029                 1.4368
 IR Inten    --      6.0918                 9.8482                13.9301

                     40                     41                     42
                      A                      A                      A
 Frequencies --   1387.5179              1402.5714              1411.0714
 Red. masses --      1.4228                 1.2515                 1.3302
 Frc consts  --      1.6139                 1.4506                 1.5605
 IR Inten    --      7.6910                12.9800                11.0274

                     43                     44                     45
                      A                      A                      A
 Frequencies --   1457.2846              1459.4947              1479.4376
 Red. masses --      1.1682                 1.1683                 1.1947
 Frc consts  --      1.4617                 1.4663                 1.5406
 IR Inten    --      2.5119                 5.4201                36.6467

                     46                     47                     48
                      A                      A                      A
 Frequencies --   1482.6769              1486.6796              1489.8199
 Red. masses --      1.1781                 1.0712                 1.0624
 Frc consts  --      1.5258                 1.3949                 1.3894
 IR Inten    --      4.8230                 9.8389                 5.9787

                     49                     50                     51
                      A                      A                      A
 Frequencies --   1491.3004              1503.5402              1510.9591
 Red. masses --      1.0717                 1.0733                 1.0651
 Frc consts  --      1.4043                 1.4295                 1.4327
 IR Inten    --      3.3028                 0.4819                 8.3064

                     52                     53                     54
                      A                      A                      A
 Frequencies --   1514.5207              1517.9639              1522.2742
 Red. masses --      1.0934                 1.0560                 1.0879
 Frc consts  --      1.4777                 1.4337                 1.4853
 IR Inten    --      3.1955                10.1428                 4.3817

                     55                     56                     57
                      A                      A                      A
 Frequencies --   1525.1819              2916.0518              2935.9545
 Red. masses --      1.1936                 1.0707                 1.0752
 Frc consts  --      1.6359                 5.3642                 5.4607
 IR Inten    --     45.8053                21.4517                64.0773

                     58                     59                     60
                      A                      A                      A
 Frequencies --   2938.1580              2940.7579              2953.3322
 Red. masses --      1.0621                 1.0618                 1.0701
 Frc consts  --      5.4019                 5.4101                 5.4992
 IR Inten    --     91.4947               112.5467                78.3390

                     61                     62                     63
                      A                      A                      A
 Frequencies --   3020.7915              3025.8224              3035.2796
 Red. masses --      1.0883                 1.0908                 1.0356
 Frc consts  --      5.8509                 5.8842                 5.6215
 IR Inten    --     35.3740                50.1437                20.7503

                     64                     65                     66
                      A                      A                      A
 Frequencies --   3050.9981              3052.6983              3100.5481
 Red. masses --      1.0736                 1.0737                 1.1010
 Frc consts  --      5.8881                 5.8955                 6.2361
 IR Inten    --     42.4512                39.6105                31.4936

                     67                     68                     69
                      A                      A                      A
 Frequencies --   3100.8008              3106.5393              3109.6624
 Red. masses --      1.1005                 1.1003                 1.1012
 Frc consts  --      6.2341                 6.2563                 6.2740
 IR Inten    --     28.3388                33.6677                26.6599

                     70                     71                     72
                      A                      A                      A
 Frequencies --   3509.5144              3513.5646              3526.6717
 Red. masses --      1.0728                 1.0733                 1.0732
 Frc consts  --      7.7849                 7.8068                 7.8645
 IR Inten    --      0.0232                 0.2611                 0.1648

 - Thermochemistry -
 -------------------
 Temperature   298.150 Kelvin.  Pressure   1.00000 Atm.
 Atom     1 has atomic number  6 and mass  12.00000

 Molecular mass:   131.14225 amu.
 Principal axes and moments of inertia in atomic units:
                           1         2         3
     Eigenvalues --   530.568523030.409103245.20861
           X            0.99997   0.00339   0.00700
           Y           -0.00362   0.99946   0.03274
           Z           -0.00688  -0.03276   0.99944
 This molecule is an asymmetric top.
 Rotational symmetry number  1.
 Warning -- assumption of classical behavior for rotation
           may cause significant error
 Rotational temperatures (Kelvin)      0.16325     0.02858     0.02669
 Rotational constants (GHZ):           3.40152     0.59554     0.55612
 Zero-point vibrational energy     630486.9 (Joules/Mol)
                                  150.68999 (Kcal/Mol)
 Warning -- explicit consideration of  16 degrees of freedom as
           vibrations may cause significant error
 Vibrational temperatures:     42.33    97.30   117.32   129.45   179.96
          (Kelvin)            230.32   324.96   348.41   367.51   408.01
                              423.51   477.35   536.14   636.21   702.48
                              812.46  1068.88  1133.54  1153.39  1209.71
                             1320.90  1349.72  1399.58  1427.72  1471.35
                             1581.46  1582.21  1604.02  1608.10  1653.07
                             1664.14  1694.41  1720.93  1749.43  1767.57
                             1848.56  1874.83  1922.72  1983.48  1996.33
                             2017.99  2030.22  2096.71  2099.89  2128.58
                             2133.24  2139.00  2143.52  2145.65  2163.26
                             2173.93  2179.06  2184.01  2190.21  2194.40
                             4195.55  4224.18  4227.35  4231.09  4249.19
                             4346.25  4353.48  4367.09  4389.71  4392.15
                             4461.00  4461.36  4469.62  4474.11  5049.41
                             5055.24  5074.09

 Zero-point correction=                           0.240140 (Hartree/Particle)
 Thermal correction to Energy=                    0.252122
 Thermal correction to Enthalpy=                  0.253066
 Thermal correction to Gibbs Free Energy=         0.201449
 Sum of electronic and zero-point Energies=           -402.892767
 Sum of electronic and thermal Energies=              -402.880784
 Sum of electronic and thermal Enthalpies=            -402.879840
 Sum of electronic and thermal Free Energies=         -402.931458

                     E (Thermal)             CV                S
                      KCal/Mol        Cal/Mol-Kelvin    Cal/Mol-Kelvin
 Total                  158.209             42.238            108.639
 Electronic               0.000              0.000              0.000
 Translational            0.889              2.981             40.526
 Rotational               0.889              2.981             30.035
 Vibrational            156.432             36.277             38.078
 Vibration     1          0.593              1.984              5.868
 Vibration     2          0.598              1.970              4.221
 Vibration     3          0.600              1.962              3.853
 Vibration     4          0.602              1.956              3.661
 Vibration     5          0.610              1.928              3.020
 Vibration     6          0.622              1.891              2.549
 Vibration     7          0.650              1.802              1.912
 Vibration     8          0.658              1.776              1.787
 Vibration     9          0.666              1.754              1.693
 Vibration    10          0.682              1.704              1.512
 Vibration    11          0.689              1.684              1.449
 Vibration    12          0.714              1.612              1.251
 Vibration    13          0.744              1.528              1.069
 Vibration    14          0.802              1.378              0.820
 Vibration    15          0.844              1.276              0.688
 Vibration    16          0.921              1.108              0.515

 Optimization completed.
    -- Stationary point found.
 Normal termination of Gaussian 16 at Tue Jun  1 22:51:43 2021.
