 Gaussian 16, Revision A.03,
 Gaussian 16:  ES64L-G16RevA.03 25-Dec-2016

 -----------------------------
 # opt freq b3lyp/6-31g(2df,p)
 -----------------------------

 -------------------
 Title Card Required
 -------------------
 Symbolic Z-matrix:
 Charge =  0 Multiplicity = 1

 SCF Done:  E(RB3LYP) =  -480.514267597     A.U. after   12 cycles
 SCF Done:  E(RB3LYP) =  -480.524118662     A.U. after   10 cycles
 SCF Done:  E(RB3LYP) =  -480.526186470     A.U. after   10 cycles
 SCF Done:  E(RB3LYP) =  -480.526836632     A.U. after   10 cycles
 SCF Done:  E(RB3LYP) =  -480.527036294     A.U. after   10 cycles
 SCF Done:  E(RB3LYP) =  -480.527074503     A.U. after    9 cycles
 SCF Done:  E(RB3LYP) =  -480.527087644     A.U. after    9 cycles
 SCF Done:  E(RB3LYP) =  -480.527099579     A.U. after    9 cycles
 SCF Done:  E(RB3LYP) =  -480.527102001     A.U. after    8 cycles
 SCF Done:  E(RB3LYP) =  -480.527103161     A.U. after    7 cycles
 SCF Done:  E(RB3LYP) =  -480.527103923     A.U. after    7 cycles
 SCF Done:  E(RB3LYP) =  -480.527104644     A.U. after    8 cycles
 SCF Done:  E(RB3LYP) =  -480.527105321     A.U. after    8 cycles
 SCF Done:  E(RB3LYP) =  -480.527105757     A.U. after    8 cycles
 SCF Done:  E(RB3LYP) =  -480.527105904     A.U. after    7 cycles
 SCF Done:  E(RB3LYP) =  -480.527105918     A.U. after    6 cycles
 Optimization completed.
    -- Stationary point found.
 Normal termination of Gaussian 16 at Tue Jun  1 10:42:08 2021.

 ----------------------------------------------------------------------
 #N Geom=AllCheck Guess=TCheck SCRF=Check GenChk RB3LYP/6-31G(2df,p) Fr
 eq
 ----------------------------------------------------------------------

 Structure from the checkpoint file:  "CNCNCN1CCpCppCpC1.chk"
 -------------------
 Title Card Required
 -------------------
 Charge =  0 Multiplicity = 1

                         Standard orientation:
 ---------------------------------------------------------------------
 Center     Atomic      Atomic             Coordinates (Angstroms)
 Number     Number       Type             X           Y           Z
 ---------------------------------------------------------------------
      1          6           0       -4.896034    0.545118   -0.168701
      2          7           0       -3.465574    0.789136   -0.042240
      3          6           0       -2.690992   -0.442742   -0.020152
      4          7           0       -1.282880   -0.156495    0.193603
      5          6           0       -0.417554   -1.338610    0.072428
      6          7           0        0.986290   -1.042270   -0.020928
      7          6           0        1.486171   -0.099643   -1.041661
      8          6           0        2.581441    0.362149   -0.033326
      9          6           0        2.785997    1.865497    0.103663
     10          6           0        3.905722   -0.374167   -0.236692
     11          6           0        1.691970   -0.317834    1.052165
     12          1           0       -5.435893    1.494292   -0.110299
     13          1           0       -5.313592   -0.137361    0.594613
     14          1           0       -5.105219    0.104395   -1.150443
     15          1           0       -3.289704    1.306876    0.813891
     16          1           0       -2.793092   -0.923237   -1.003266
     17          1           0       -3.096366   -1.171303    0.723228
     18          1           0       -1.166301    0.243036    1.120860
     19          1           0       -0.717936   -1.858883   -0.846258
     20          1           0       -0.553440   -2.051463    0.905098
     21          1           0        0.769113    0.696836   -1.280193
     22          1           0        1.825644   -0.576189   -1.969690
     23          1           0        3.265468    2.279244   -0.791217
     24          1           0        3.430365    2.099888    0.959435
     25          1           0        1.834775    2.388430    0.244502
     26          1           0        4.411181   -0.027599   -1.145470
     27          1           0        3.740112   -1.451670   -0.329789
     28          1           0        4.584775   -0.204582    0.607066
     29          1           0        1.076185    0.420522    1.590473
     30          1           0        2.188746   -0.962435    1.788076
 ---------------------------------------------------------------------

 SCF Done:  E(RB3LYP) =  -480.527105918     A.U. after    1 cycles

 The electronic state is 1-A.
 Alpha  occ. eigenvalues --  -14.31004 -14.30899 -14.30700 -10.22571 -10.22341
 Alpha  occ. eigenvalues --  -10.19826 -10.19767 -10.18998 -10.18915 -10.16903
 Alpha  occ. eigenvalues --  -10.16697  -0.94301  -0.91472  -0.86222  -0.78170
 Alpha  occ. eigenvalues --   -0.70312  -0.68042  -0.66907  -0.66435  -0.62033
 Alpha  occ. eigenvalues --   -0.58198  -0.52071  -0.49583  -0.48689  -0.47019
 Alpha  occ. eigenvalues --   -0.46475  -0.44621  -0.44187  -0.42275  -0.40934
 Alpha  occ. eigenvalues --   -0.40459  -0.39508  -0.38491  -0.37798  -0.36732
 Alpha  occ. eigenvalues --   -0.36358  -0.35820  -0.33568  -0.32826  -0.30576
 Alpha  occ. eigenvalues --   -0.29354  -0.22956  -0.21567  -0.20892
 Alpha virt. eigenvalues --    0.07399   0.08553   0.09488   0.10635   0.12548
 Alpha virt. eigenvalues --    0.13699   0.14060   0.14698   0.15296   0.16008
 Alpha virt. eigenvalues --    0.16305   0.16561   0.17043   0.17361   0.18251

 Mulliken charges:
               1
     1  C   -0.311077
     2  N   -0.281277
     3  C   -0.055052
     4  N   -0.310793
     5  C   -0.119243
     6  N   -0.076701
     7  C   -0.207687
     8  C    0.336828
     9  C   -0.454718
    10  C   -0.436101
    11  C   -0.215041
    12  H    0.118472
    13  H    0.091429
    14  H    0.123253
    15  H    0.208286
    16  H    0.106298
    17  H    0.053004
    18  H    0.206799
    19  H    0.105202
    20  H    0.084855
    21  H    0.103913
    22  H    0.086819
    23  H    0.113390
    24  H    0.109839
    25  H    0.114183
    26  H    0.108992
    27  H    0.125354
    28  H    0.106960
    29  H    0.072523
    30  H    0.091291
 Sum of Mulliken charges =  -0.00000

 Dipole moment (field-independent basis, Debye):
    X=             -0.6208    Y=              0.0795    Z=              1.4741  Tot=              1.6014
 Quadrupole moment (field-independent basis, Debye-Ang):
   XX=            -66.7616   YY=            -72.4968   ZZ=            -68.1759
   XY=              2.0752   XZ=             -2.6902   YZ=              2.3805

  Exact polarizability: 137.139   1.275  99.622   0.459   0.741  95.933
 Approx polarizability: 156.063   1.248 145.328   1.162   2.071 147.952

                      1                      2                      3
                      A                      A                      A
 Frequencies --     29.3426                34.5587                47.7217
 Red. masses --      3.1545                 1.8975                 3.0537
 Frc consts  --      0.0016                 0.0013                 0.0041
 IR Inten    --      0.2044                 4.7810                 0.2605

                      4                      5                      6
                      A                      A                      A
 Frequencies --     88.7438               116.4719               150.4293
 Red. masses --      2.4929                 2.5915                 2.7642
 Frc consts  --      0.0116                 0.0207                 0.0369
 IR Inten    --      0.8201                 0.2540                 2.3814

                      7                      8                      9
                      A                      A                      A
 Frequencies --    193.1229               215.7580               243.4285
 Red. masses --      3.4385                 1.1000                 1.1324
 Frc consts  --      0.0756                 0.0302                 0.0395
 IR Inten    --      1.4995                 0.0198                 1.4081

                     10                     11                     12
                      A                      A                      A
 Frequencies --    253.4530               295.9425               308.8238
 Red. masses --      1.2073                 1.6598                 1.8732
 Frc consts  --      0.0457                 0.0857                 0.1053
 IR Inten    --      0.2115                 0.3315                 0.3820

                     13                     14                     15
                      A                      A                      A
 Frequencies --    328.3653               372.5992               385.6386
 Red. masses --      2.4661                 3.0830                 4.2313
 Frc consts  --      0.1567                 0.2522                 0.3708
 IR Inten    --      0.8190                 3.6406                 1.8876

                     16                     17                     18
                      A                      A                      A
 Frequencies --    421.4150               429.0486               546.8969
 Red. masses --      1.8769                 2.0574                 3.7879
 Frc consts  --      0.1964                 0.2231                 0.6675
 IR Inten    --      1.4363                 0.0544                 7.8977

                     19                     20                     21
                      A                      A                      A
 Frequencies --    631.1047               758.7118               771.0319
 Red. masses --      3.7193                 1.5797                 1.9391
 Frc consts  --      0.8728                 0.5358                 0.6792
 IR Inten    --      0.3055                22.2906                 7.6607

                     22                     23                     24
                      A                      A                      A
 Frequencies --    801.9028               873.7385               899.2618
 Red. masses --      1.2221                 2.1765                 2.5195
 Frc consts  --      0.4630                 0.9790                 1.2004
 IR Inten    --    132.4229                 0.1998                 2.4669

                     25                     26                     27
                      A                      A                      A
 Frequencies --    936.4350               953.6590               964.4904
 Red. masses --      1.4117                 1.6626                 1.7351
 Frc consts  --      0.7294                 0.8909                 0.9510
 IR Inten    --      1.9958                 0.9240                 7.2396

                     28                     29                     30
                      A                      A                      A
 Frequencies --    975.1352               986.5014              1003.9628
 Red. masses --      1.9814                 2.2127                 1.6489
 Frc consts  --      1.1101                 1.2687                 0.9792
 IR Inten    --      0.5097                 2.5691                 3.7967

                     31                     32                     33
                      A                      A                      A
 Frequencies --   1032.6372              1054.2768              1064.2492
 Red. masses --      2.3934                 1.5394                 1.5906
 Frc consts  --      1.5037                 1.0081                 1.0614
 IR Inten    --     39.0510                 3.6054                 7.5390

                     34                     35                     36
                      A                      A                      A
 Frequencies --   1109.3928              1125.6889              1137.3752
 Red. masses --      3.0832                 1.4817                 1.2751
 Frc consts  --      2.2358                 1.1062                 0.9719
 IR Inten    --     74.0965                13.1850                25.9543

                     37                     38                     39
                      A                      A                      A
 Frequencies --   1145.3260              1174.6104              1181.3086
 Red. masses --      2.1590                 1.6969                 1.8135
 Frc consts  --      1.6687                 1.3794                 1.4910
 IR Inten    --     65.6352                37.4597                29.5066

                     40                     41                     42
                      A                      A                      A
 Frequencies --   1194.9924              1211.1710              1249.0211
 Red. masses --      2.4465                 2.2660                 1.8137
 Frc consts  --      2.0583                 1.9585                 1.6671
 IR Inten    --     20.7864                 1.1532                 7.5917

                     43                     44                     45
                      A                      A                      A
 Frequencies --   1276.0855              1290.5712              1295.5710
 Red. masses --      1.4080                 3.4550                 2.2054
 Frc consts  --      1.3508                 3.3905                 2.1810
 IR Inten    --     19.4246                73.6437                 1.1315

                     46                     47                     48
                      A                      A                      A
 Frequencies --   1296.0182              1351.3189              1358.9879
 Red. masses --      1.4617                 1.7241                 1.3094
 Frc consts  --      1.4465                 1.8549                 1.4248
 IR Inten    --      4.9372                 1.5352                 8.0013

                     49                     50                     51
                      A                      A                      A
 Frequencies --   1376.7841              1401.2684              1420.2569
 Red. masses --      1.1969                 1.2924                 1.2378
 Frc consts  --      1.3367                 1.4952                 1.4710
 IR Inten    --     53.7676                 4.9409                 1.8506

                     52                     53                     54
                      A                      A                      A
 Frequencies --   1430.3454              1455.6399              1476.3764
 Red. masses --      1.2597                 1.1660                 1.2101
 Frc consts  --      1.5185                 1.4557                 1.5540
 IR Inten    --      4.8650                29.6994                65.3849

                     55                     56                     57
                      A                      A                      A
 Frequencies --   1486.1558              1487.0453              1487.3014
 Red. masses --      1.0540                 1.0639                 1.0476
 Frc consts  --      1.3716                 1.3862                 1.3653
 IR Inten    --      2.1167                 3.8792                 0.5525

                     58                     59                     60
                      A                      A                      A
 Frequencies --   1490.4223              1497.9468              1501.9758
 Red. masses --      1.1443                 1.0935                 1.0635
 Frc consts  --      1.4977                 1.4456                 1.4136
 IR Inten    --      7.1848                 2.0911                 0.5309

                     61                     62                     63
                      A                      A                      A
 Frequencies --   1503.5768              1512.2200              1517.7997
 Red. masses --      1.1208                 1.0642                 1.0629
 Frc consts  --      1.4929                 1.4339                 1.4426
 IR Inten    --      9.9649                 7.5865                 6.0719

                     64                     65                     66
                      A                      A                      A
 Frequencies --   1526.9863              1538.2399              2794.7178
 Red. masses --      1.1147                 1.1130                 1.0730
 Frc consts  --      1.5314                 1.5516                 4.9379
 IR Inten    --      6.4589                 0.1787               130.6952

                     67                     68                     69
                      A                      A                      A
 Frequencies --   2934.2857              2942.2597              2964.8426
 Red. masses --      1.0604                 1.0697                 1.0641
 Frc consts  --      5.3795                 5.4562                 5.5109
 IR Inten    --     94.2892                90.4496                71.2990

                     70                     71                     72
                      A                      A                      A
 Frequencies --   3004.9958              3016.4359              3018.9638
 Red. masses --      1.0542                 1.0836                 1.0356
 Frc consts  --      5.6089                 5.8089                 5.5610
 IR Inten    --     35.4947                22.9556                20.5622

                     73                     74                     75
                      A                      A                      A
 Frequencies --   3024.5199              3034.0232              3038.2862
 Red. masses --      1.0387                 1.0951                 1.0902
 Frc consts  --      5.5984                 5.9392                 5.9295
 IR Inten    --     37.7014                68.1039                32.0988

                     76                     77                     78
                      A                      A                      A
 Frequencies --   3051.5272              3052.7338              3081.2792
 Red. masses --      1.1097                 1.0737                 1.1010
 Frc consts  --      6.0883                 5.8954                 6.1589
 IR Inten    --     32.5125                40.5157                 1.1516

                     79                     80                     81
                      A                      A                      A
 Frequencies --   3086.5810              3097.5692              3105.4180
 Red. masses --      1.1004                 1.1009                 1.0999
 Frc consts  --      6.1769                 6.2237                 6.2495
 IR Inten    --     53.6126                33.5080                26.9526

                     82                     83                     84
                      A                      A                      A
 Frequencies --   3106.0088              3493.9392              3502.3224
 Red. masses --      1.1007                 1.0729                 1.0735
 Frc consts  --      6.2567                 7.7168                 7.7582
 IR Inten    --     26.8181                 0.5396                 0.9068

 - Thermochemistry -
 -------------------
 Temperature   298.150 Kelvin.  Pressure   1.00000 Atm.
 Atom     1 has atomic number  6 and mass  12.00000

 Molecular mass:   157.15790 amu.
 Principal axes and moments of inertia in atomic units:
                           1         2         3
     Eigenvalues --   646.736444478.378764771.25268
           X            0.99998   0.00607  -0.00104
           Y           -0.00605   0.99989   0.01376
           Z            0.00113  -0.01376   0.99990
 This molecule is an asymmetric top.
 Rotational symmetry number  1.
 Warning -- assumption of classical behavior for rotation
           may cause significant error
 Rotational temperatures (Kelvin)      0.13392     0.01934     0.01815
 Rotational constants (GHZ):           2.79054     0.40299     0.37825
 Zero-point vibrational energy     717923.0 (Joules/Mol)
                                  171.58771 (Kcal/Mol)
 Warning -- explicit consideration of  18 degrees of freedom as
           vibrations may cause significant error
 Vibrational temperatures:     42.22    49.72    68.66   127.68   167.58
          (Kelvin)            216.43   277.86   310.43   350.24   364.66
                              425.80   444.33   472.44   536.09   554.85
                              606.32   617.31   786.86   908.02  1091.62
                             1109.34  1153.76  1257.11  1293.84  1347.32
                             1372.10  1387.69  1403.00  1419.36  1444.48
                             1485.73  1516.87  1531.22  1596.17  1619.62
                             1636.43  1647.87  1690.00  1699.64  1719.33
                             1742.60  1797.06  1836.00  1856.84  1864.04
                             1864.68  1944.25  1955.28  1980.89  2016.11
                             2043.43  2057.95  2094.34  2124.18  2138.25
                             2139.53  2139.89  2144.39  2155.21  2161.01
                             2163.31  2175.75  2183.78  2196.99  2213.18
                             4020.98  4221.78  4233.26  4265.75  4323.52
                             4339.98  4343.62  4351.61  4365.28  4371.42
                             4390.47  4392.20  4433.27  4440.90  4456.71
                             4468.00  4468.85  5027.00  5039.06

 Zero-point correction=                           0.273442 (Hartree/Particle)
 Thermal correction to Energy=                    0.286877
 Thermal correction to Enthalpy=                  0.287821
 Thermal correction to Gibbs Free Energy=         0.232183
 Sum of electronic and zero-point Energies=           -480.253663
 Sum of electronic and thermal Energies=              -480.240229
 Sum of electronic and thermal Enthalpies=            -480.239285
 Sum of electronic and thermal Free Energies=         -480.294923

                     E (Thermal)             CV                S
                      KCal/Mol        Cal/Mol-Kelvin    Cal/Mol-Kelvin
 Total                  180.018             48.684            117.101
 Electronic               0.000              0.000              0.000
 Translational            0.889              2.981             41.066
 Rotational               0.889              2.981             31.003
 Vibrational            178.241             42.723             45.033
 Vibration     1          0.593              1.984              5.873
 Vibration     2          0.594              1.983              5.549
 Vibration     3          0.595              1.978              4.910
 Vibration     4          0.602              1.957              3.688
 Vibration     5          0.608              1.936              3.158
 Vibration     6          0.618              1.902              2.667
 Vibration     7          0.635              1.849              2.198
 Vibration     8          0.645              1.817              1.994
 Vibration     9          0.659              1.774              1.778
 Vibration    10          0.665              1.757              1.706
 Vibration    11          0.690              1.681              1.440
 Vibration    12          0.698              1.657              1.369
 Vibration    13          0.712              1.619              1.268
 Vibration    14          0.744              1.528              1.069
 Vibration    15          0.754              1.501              1.017
 Vibration    16          0.784              1.424              0.887
 Vibration    17          0.790              1.407              0.862
 Vibration    18          0.902              1.146              0.551

 Optimization completed.
    -- Stationary point found.
 Normal termination of Gaussian 16 at Tue Jun  1 11:49:49 2021.
