 Gaussian 16, Revision A.03,
 Gaussian 16:  ES64L-G16RevA.03 25-Dec-2016

 -----------------------------
 # opt freq b3lyp/6-31g(2df,p)
 -----------------------------

 -------------------
 Title Card Required
 -------------------
 Symbolic Z-matrix:
 Charge =  0 Multiplicity = 1

 SCF Done:  E(RB3LYP) =  -495.308733174     A.U. after   14 cycles
 SCF Done:  E(RB3LYP) =  -495.336812712     A.U. after   12 cycles
 SCF Done:  E(RB3LYP) =  -495.338625756     A.U. after   12 cycles
 SCF Done:  E(RB3LYP) =  -495.339693903     A.U. after   11 cycles
 SCF Done:  E(RB3LYP) =  -495.340913807     A.U. after   12 cycles
 SCF Done:  E(RB3LYP) =  -495.342433041     A.U. after   14 cycles
 SCF Done:  E(RB3LYP) =  -495.344816070     A.U. after   10 cycles
 SCF Done:  E(RB3LYP) =  -495.346632649     A.U. after   12 cycles
 SCF Done:  E(RB3LYP) =  -495.346035010     A.U. after   12 cycles
 SCF Done:  E(RB3LYP) =  -495.346894108     A.U. after   10 cycles
 SCF Done:  E(RB3LYP) =  -495.346927919     A.U. after   10 cycles
 SCF Done:  E(RB3LYP) =  -495.346932873     A.U. after    9 cycles
 SCF Done:  E(RB3LYP) =  -495.346935998     A.U. after    8 cycles
 SCF Done:  E(RB3LYP) =  -495.346936689     A.U. after    8 cycles
 SCF Done:  E(RB3LYP) =  -495.346936890     A.U. after    8 cycles
 SCF Done:  E(RB3LYP) =  -495.346936924     A.U. after    6 cycles
 SCF Done:  E(RB3LYP) =  -495.346936947     A.U. after    7 cycles
 SCF Done:  E(RB3LYP) =  -495.346936957     A.U. after    6 cycles
 Optimization completed.
    -- Stationary point found.
 Normal termination of Gaussian 16 at Tue Jun  1 05:06:16 2021.

 ----------------------------------------------------------------------
 #N Geom=AllCheck Guess=TCheck SCRF=Check GenChk RB3LYP/6-31G(2df,p) Fr
 eq
 ----------------------------------------------------------------------

 Structure from the checkpoint file:  "CNCNpCpNCCCCtN.chk"
 -------------------
 Title Card Required
 -------------------
 Charge =  0 Multiplicity = 1

                         Standard orientation:
 ---------------------------------------------------------------------
 Center     Atomic      Atomic             Coordinates (Angstroms)
 Number     Number       Type             X           Y           Z
 ---------------------------------------------------------------------
      1          6           0       -4.118680   -1.804999    0.065699
      2          7           0       -3.545915   -0.491354   -0.205739
      3          6           0       -2.229987   -0.308582    0.373711
      4          7           0       -1.492889    0.791683   -0.252131
      5          6           0       -2.172517    2.071977   -0.118757
      6          7           0       -0.179709    0.902595    0.285286
      7          6           0        0.772937    0.034261   -0.396016
      8          6           0        2.172892    0.246377    0.181152
      9          6           0        3.219934   -0.621009   -0.543369
     10          6           0        4.564061   -0.454448    0.004668
     11          7           0        5.620705   -0.313928    0.450840
     12          1           0       -5.131124   -1.849133   -0.345389
     13          1           0       -4.174217   -2.068896    1.136845
     14          1           0       -3.522177   -2.574885   -0.436008
     15          1           0       -4.176642    0.221296    0.143472
     16          1           0       -1.661130   -1.228496    0.201966
     17          1           0       -2.267892   -0.153803    1.481720
     18          1           0       -3.118317    2.039219   -0.666349
     19          1           0       -1.541762    2.847826   -0.554673
     20          1           0       -2.378847    2.345777    0.934013
     21          1           0       -0.186830    0.701604    1.290171
     22          1           0        0.753333    0.305751   -1.456847
     23          1           0        0.514846   -1.039182   -0.340610
     24          1           0        2.183118   -0.002070    1.249240
     25          1           0        2.444365    1.303014    0.100070
     26          1           0        3.246782   -0.370926   -1.610461
     27          1           0        2.949311   -1.681525   -0.477478
 ---------------------------------------------------------------------

 SCF Done:  E(RB3LYP) =  -495.346936957     A.U. after    1 cycles

 The electronic state is 1-A.
 Alpha  occ. eigenvalues --  -14.34661 -14.34491 -14.32381 -14.32262 -10.23686
 Alpha  occ. eigenvalues --  -10.23525 -10.21756 -10.21713 -10.20894 -10.20695
 Alpha  occ. eigenvalues --  -10.19921  -0.98591  -0.90880  -0.89849  -0.83700
 Alpha  occ. eigenvalues --   -0.79619  -0.71051  -0.70537  -0.65647  -0.61709
 Alpha  occ. eigenvalues --   -0.60108  -0.52584  -0.51775  -0.49804  -0.49145
 Alpha  occ. eigenvalues --   -0.46937  -0.46307  -0.43691  -0.42959  -0.41572
 Alpha  occ. eigenvalues --   -0.40708  -0.40327  -0.38923  -0.37490  -0.36776
 Alpha  occ. eigenvalues --   -0.36587  -0.35800  -0.35012  -0.32038  -0.31959
 Alpha  occ. eigenvalues --   -0.24346  -0.23611  -0.22373
 Alpha virt. eigenvalues --    0.03682   0.04266   0.07012   0.07800   0.08547
 Alpha virt. eigenvalues --    0.10366   0.11586   0.12190   0.13160   0.13408
 Alpha virt. eigenvalues --    0.15241   0.16102   0.16219   0.16716   0.17467

 Mulliken charges:
               1
     1  C   -0.313199
     2  N   -0.287925
     3  C   -0.069130
     4  N   -0.054046
     5  C   -0.310636
     6  N   -0.291225
     7  C   -0.105650
     8  C   -0.198891
     9  C   -0.339961
    10  C    0.257506
    11  N   -0.304079
    12  H    0.123406
    13  H    0.096960
    14  H    0.126376
    15  H    0.221245
    16  H    0.104119
    17  H    0.051258
    18  H    0.124383
    19  H    0.130491
    20  H    0.083367
    21  H    0.198224
    22  H    0.119027
    23  H    0.080502
    24  H    0.116162
    25  H    0.133977
    26  H    0.155446
    27  H    0.152293
 Sum of Mulliken charges =  -0.00000

 Dipole moment (field-independent basis, Debye):
    X=             -4.6927    Y=             -0.9605    Z=              0.2079  Tot=              4.7945
 Quadrupole moment (field-independent basis, Debye-Ang):
   XX=            -94.9252   YY=            -66.4609   ZZ=            -68.7500
   XY=             -0.5524   XZ=            -10.4720   YZ=              0.3747

  Exact polarizability: 138.849   1.502  94.566   4.460   0.692  83.972
 Approx polarizability: 168.554   2.426 133.076  12.215   1.406 133.241

                      1                      2                      3
                      A                      A                      A
 Frequencies --     29.6099                45.5137                59.2628
 Red. masses --      4.2069                 2.4022                 2.8577
 Frc consts  --      0.0022                 0.0029                 0.0059
 IR Inten    --      4.2851                 2.8183                 2.6632

                      4                      5                      6
                      A                      A                      A
 Frequencies --     72.1780                99.1407               108.1678
 Red. masses --      2.4866                 3.1290                 2.5512
 Frc consts  --      0.0076                 0.0181                 0.0176
 IR Inten    --      1.2728                 3.1587                 3.0281

                      7                      8                      9
                      A                      A                      A
 Frequencies --    147.5509               182.9924               205.1040
 Red. masses --      2.2678                 3.6571                 1.7156
 Frc consts  --      0.0291                 0.0722                 0.0425
 IR Inten    --      0.8510                 3.7275                 0.1138

                     10                     11                     12
                      A                      A                      A
 Frequencies --    252.7203               266.6498               297.5194
 Red. masses --      1.5064                 1.4361                 3.1627
 Frc consts  --      0.0567                 0.0602                 0.1649
 IR Inten    --      0.1944                 0.3874                 5.2982

                     13                     14                     15
                      A                      A                      A
 Frequencies --    323.5278               352.0857               398.4208
 Red. masses --      2.6445                 2.7016                 3.4660
 Frc consts  --      0.1631                 0.1973                 0.3242
 IR Inten    --      1.8040                 0.7685                 0.7384

                     16                     17                     18
                      A                      A                      A
 Frequencies --    431.4308               490.0232               522.0566
 Red. masses --      2.5588                 3.9342                 4.2139
 Frc consts  --      0.2806                 0.5566                 0.6767
 IR Inten    --     11.9564                 6.1486                 1.1972

                     19                     20                     21
                      A                      A                      A
 Frequencies --    585.8169               752.1644               783.2303
 Red. masses --      4.3697                 1.1157                 1.2600
 Frc consts  --      0.8835                 0.3719                 0.4554
 IR Inten    --      7.3210                 1.8146                65.5527

                     22                     23                     24
                      A                      A                      A
 Frequencies --    796.5494               861.6943               911.6016
 Red. masses --      1.7918                 1.3810                 2.3859
 Frc consts  --      0.6698                 0.6042                 1.1682
 IR Inten    --     39.6684                 4.1614                51.0149

                     25                     26                     27
                      A                      A                      A
 Frequencies --    940.8561               994.8891              1014.9219
 Red. masses --      4.1214                 2.4486                 2.6362
 Frc consts  --      2.1495                 1.4280                 1.5999
 IR Inten    --      3.7925                 3.2387                13.5916

                     28                     29                     30
                      A                      A                      A
 Frequencies --   1033.8712              1044.8670              1074.9527
 Red. masses --      1.3727                 2.5015                 2.9336
 Frc consts  --      0.8645                 1.6091                 1.9972
 IR Inten    --     29.8874                 3.1038                 5.4969

                     31                     32                     33
                      A                      A                      A
 Frequencies --   1102.9890              1127.5469              1136.0765
 Red. masses --      2.1795                 1.6084                 2.1048
 Frc consts  --      1.5622                 1.2048                 1.6006
 IR Inten    --      6.5785                 7.1368                20.2463

                     34                     35                     36
                      A                      A                      A
 Frequencies --   1145.2338              1157.5269              1186.5146
 Red. masses --      1.7492                 1.5850                 2.5256
 Frc consts  --      1.3517                 1.2512                 2.0949
 IR Inten    --     15.8273                22.9675                39.4495

                     37                     38                     39
                      A                      A                      A
 Frequencies --   1225.6076              1244.3341              1269.6183
 Red. masses --      1.4643                 2.5869                 2.2914
 Frc consts  --      1.2960                 2.3600                 2.1762
 IR Inten    --      9.3289                10.4662                 1.1651

                     40                     41                     42
                      A                      A                      A
 Frequencies --   1274.2002              1296.6227              1315.5974
 Red. masses --      1.3758                 1.2274                 1.0912
 Frc consts  --      1.3161                 1.2158                 1.1128
 IR Inten    --      1.5577                 1.5591                 0.7289

                     43                     44                     45
                      A                      A                      A
 Frequencies --   1322.1067              1361.3405              1406.0340
 Red. masses --      1.1862                 1.3832                 1.4848
 Frc consts  --      1.2217                 1.5103                 1.7294
 IR Inten    --     26.1262                 7.0863                14.0598

                     46                     47                     48
                      A                      A                      A
 Frequencies --   1413.8475              1440.0726              1461.3564
 Red. masses --      1.2368                 1.1908                 1.1638
 Frc consts  --      1.4567                 1.4549                 1.4644
 IR Inten    --     10.9602                 9.7817                 0.5832

                     49                     50                     51
                      A                      A                      A
 Frequencies --   1469.6054              1484.4254              1490.0739
 Red. masses --      1.0821                 1.1148                 1.0637
 Frc consts  --      1.3769                 1.4473                 1.3915
 IR Inten    --      2.3297                15.3005                13.2040

                     52                     53                     54
                      A                      A                      A
 Frequencies --   1492.6241              1497.4702              1498.4785
 Red. masses --      1.1127                 1.0853                 1.0724
 Frc consts  --      1.4606                 1.4339                 1.4188
 IR Inten    --      2.2896                 2.4420                 7.1968

                     55                     56                     57
                      A                      A                      A
 Frequencies --   1507.7787              1517.3619              1522.5820
 Red. masses --      1.1182                 1.0964                 1.0865
 Frc consts  --      1.4978                 1.4873                 1.4840
 IR Inten    --      3.3503                 5.0537                 1.8128

                     58                     59                     60
                      A                      A                      A
 Frequencies --   1526.6084              2363.5482              2776.9429
 Red. masses --      1.1322                12.6097                 1.0713
 Frc consts  --      1.5546                41.5034                 4.8673
 IR Inten    --     21.2994                12.9825               106.6100

                     61                     62                     63
                      A                      A                      A
 Frequencies --   2923.4017              2931.1669              2946.6266
 Red. masses --      1.0608                 1.0724                 1.0591
 Frc consts  --      5.3412                 5.4284                 5.4180
 IR Inten    --     89.9420                52.8785                93.5397

                     64                     65                     66
                      A                      A                      A
 Frequencies --   3034.8655              3042.8476              3058.5803
 Red. masses --      1.0606                 1.0642                 1.0767
 Frc consts  --      5.7554                 5.8052                 5.9347
 IR Inten    --      0.7686                14.6063                19.4065

                     67                     68                     69
                      A                      A                      A
 Frequencies --   3060.9442              3066.5407              3072.1274
 Red. masses --      1.0825                 1.0834                 1.0995
 Frc consts  --      5.9756                 6.0027                 6.1140
 IR Inten    --     39.8481                19.6375                 0.2036

                     70                     71                     72
                      A                      A                      A
 Frequencies --   3084.8040              3101.4172              3107.3005
 Red. masses --      1.0717                 1.1019                 1.1011
 Frc consts  --      6.0087                 6.2448                 6.2640
 IR Inten    --     27.6400                25.4449                28.7365

                     73                     74                     75
                      A                      A                      A
 Frequencies --   3139.6578              3359.5874              3531.8029
 Red. masses --      1.1013                 1.0727                 1.0737
 Frc consts  --      6.3963                 7.1331                 7.8908
 IR Inten    --     15.2717                17.4350                 0.4479

 - Thermochemistry -
 -------------------
 Temperature   298.150 Kelvin.  Pressure   1.00000 Atm.
 Atom     1 has atomic number  6 and mass  12.00000

 Molecular mass:   156.13750 amu.
 Principal axes and moments of inertia in atomic units:
                           1         2         3
     Eigenvalues --   684.949845588.115436080.24759
           X            0.99996   0.00656  -0.00673
           Y           -0.00653   0.99997   0.00355
           Z            0.00675  -0.00351   0.99997
 This molecule is an asymmetric top.
 Rotational symmetry number  1.
 Warning -- assumption of classical behavior for rotation
           may cause significant error
 Rotational temperatures (Kelvin)      0.12645     0.01550     0.01425
 Rotational constants (GHZ):           2.63485     0.32296     0.29682
 Zero-point vibrational energy     625498.4 (Joules/Mol)
                                  149.49770 (Kcal/Mol)
 Warning -- explicit consideration of  19 degrees of freedom as
           vibrations may cause significant error
 Vibrational temperatures:     42.60    65.48    85.27   103.85   142.64
          (Kelvin)            155.63   212.29   263.29   295.10   363.61
                              383.65   428.06   465.48   506.57   573.24
                              620.73   705.03   751.12   842.86  1082.20
                             1126.89  1146.06  1239.79  1311.59  1353.68
                             1431.42  1460.25  1487.51  1503.33  1546.62
                             1586.96  1622.29  1634.56  1647.74  1665.42
                             1707.13  1763.38  1790.32  1826.70  1833.29
                             1865.55  1892.85  1902.22  1958.67  2022.97
                             2034.21  2071.94  2102.57  2114.43  2135.76
                             2143.88  2147.55  2154.53  2155.98  2169.36
                             2183.15  2190.66  2196.45  3400.62  3995.40
                             4206.12  4217.30  4239.54  4366.49  4377.98
                             4400.61  4404.02  4412.07  4420.11  4438.34
                             4462.25  4470.71  4517.27  4833.70  5081.48

 Zero-point correction=                           0.238240 (Hartree/Particle)
 Thermal correction to Energy=                    0.251839
 Thermal correction to Enthalpy=                  0.252784
 Thermal correction to Gibbs Free Energy=         0.196293
 Sum of electronic and zero-point Energies=           -495.108697
 Sum of electronic and thermal Energies=              -495.095098
 Sum of electronic and thermal Enthalpies=            -495.094153
 Sum of electronic and thermal Free Energies=         -495.150644

                     E (Thermal)             CV                S
                      KCal/Mol        Cal/Mol-Kelvin    Cal/Mol-Kelvin
 Total                  158.032             47.265            118.894
 Electronic               0.000              0.000              0.000
 Translational            0.889              2.981             41.046
 Rotational               0.889              2.981             31.521
 Vibrational            156.254             41.303             46.327
 Vibration     1          0.593              1.984              5.855
 Vibration     2          0.595              1.979              5.003
 Vibration     3          0.597              1.974              4.482
 Vibration     4          0.598              1.967              4.093
 Vibration     5          0.604              1.950              3.471
 Vibration     6          0.606              1.943              3.302
 Vibration     7          0.617              1.905              2.704
 Vibration     8          0.630              1.863              2.298
 Vibration     9          0.640              1.833              2.087
 Vibration    10          0.664              1.758              1.712
 Vibration    11          0.672              1.734              1.618
 Vibration    12          0.691              1.678              1.431
 Vibration    13          0.708              1.628              1.292
 Vibration    14          0.729              1.571              1.157
 Vibration    15          0.765              1.474              0.968
 Vibration    16          0.792              1.402              0.854
 Vibration    17          0.846              1.272              0.684
 Vibration    18          0.877              1.201              0.605
 Vibration    19          0.943              1.062              0.475

                           ! Non-Optimized Parameters !
 Normal termination of Gaussian 16 at Tue Jun  1 05:52:58 2021.
