 Gaussian 16, Revision A.03,
 Gaussian 16:  ES64L-G16RevA.03 25-Dec-2016

 -----------------------------
 # opt freq b3lyp/6-31g(2df,p)
 -----------------------------

 -------------------
 Title Card Required
 -------------------
 Symbolic Z-matrix:
 Charge =  0 Multiplicity = 1

 SCF Done:  E(RB3LYP) =  -488.067417071     A.U. after   16 cycles
 SCF Done:  E(RB3LYP) =  -488.079884894     A.U. after   13 cycles
 SCF Done:  E(RB3LYP) =  -488.085062939     A.U. after   13 cycles
 SCF Done:  E(RB3LYP) =  -488.087543643     A.U. after   13 cycles
 SCF Done:  E(RB3LYP) =  -488.089648263     A.U. after   13 cycles
 SCF Done:  E(RB3LYP) =  -488.092039238     A.U. after   13 cycles
 SCF Done:  E(RB3LYP) =  -488.093947764     A.U. after   14 cycles
 SCF Done:  E(RB3LYP) =  -488.095818681     A.U. after   14 cycles
 SCF Done:  E(RB3LYP) =  -488.096915120     A.U. after   13 cycles
 SCF Done:  E(RB3LYP) =  -488.097445913     A.U. after   13 cycles
 SCF Done:  E(RB3LYP) =  -488.097668095     A.U. after   12 cycles
 SCF Done:  E(RB3LYP) =  -488.097828033     A.U. after   12 cycles
 SCF Done:  E(RB3LYP) =  -488.097887420     A.U. after   12 cycles
 SCF Done:  E(RB3LYP) =  -488.097895342     A.U. after   10 cycles
 SCF Done:  E(RB3LYP) =  -488.097897104     A.U. after    8 cycles
 SCF Done:  E(RB3LYP) =  -488.097897477     A.U. after    8 cycles
 SCF Done:  E(RB3LYP) =  -488.097897612     A.U. after    8 cycles
 Optimization completed.
    -- Stationary point found.
 Normal termination of Gaussian 16 at Mon May 31 23:21:13 2021.

 ----------------------------------------------------------------------
 #N Geom=AllCheck Guess=TCheck SCRF=Check GenChk RB3LYP/6-31G(2df,p) Fr
 eq
 ----------------------------------------------------------------------

 Structure from the checkpoint file:  "CNCNpCdNpNdNCN.chk"
 -------------------
 Title Card Required
 -------------------
 Charge =  0 Multiplicity = 1

                         Standard orientation:
 ---------------------------------------------------------------------
 Center     Atomic      Atomic             Coordinates (Angstroms)
 Number     Number       Type             X           Y           Z
 ---------------------------------------------------------------------
      1          6           0        3.564353   -1.382105   -0.239756
      2          7           0        2.351277   -0.630491   -0.541914
      3          6           0        1.509533   -0.427174    0.628193
      4          7           0        0.318550    0.330329    0.296820
      5          6           0        0.377220    1.703880    0.010824
      6          7           0        1.413936    2.369020   -0.296228
      7          7           0       -0.850800   -0.357829    0.474637
      8          7           0       -1.883286    0.260267    0.156265
      9          6           0       -3.087845   -0.532502    0.403344
     10          7           0       -3.824671   -0.633570   -0.851687
     11          1           0        4.134974   -1.534284   -1.159188
     12          1           0        3.381508   -2.367828    0.222116
     13          1           0        4.189863   -0.803859    0.449431
     14          1           0        1.810836   -1.106075   -1.258203
     15          1           0        2.102112    0.128553    1.367688
     16          1           0        1.153340   -1.355973    1.097974
     17          1           0       -0.594341    2.182130    0.102381
     18          1           0        2.219203    1.749829   -0.421452
     19          1           0       -3.633794   -0.013786    1.211080
     20          1           0       -2.830596   -1.540053    0.752654
     21          1           0       -4.114480    0.295216   -1.145449
     22          1           0       -4.673227   -1.170542   -0.699919
 ---------------------------------------------------------------------

 SCF Done:  E(RB3LYP) =  -488.097897612     A.U. after    1 cycles

 The electronic state is 1-A.
 Alpha  occ. eigenvalues --  -14.41614 -14.39301 -14.35909 -14.33226 -14.31405
 Alpha  occ. eigenvalues --  -14.29931 -10.25392 -10.24704 -10.23535 -10.21419
 Alpha  occ. eigenvalues --   -1.07744  -0.96166  -0.90905  -0.88944  -0.86023
 Alpha  occ. eigenvalues --   -0.73623  -0.69873  -0.66051  -0.63195  -0.56818
 Alpha  occ. eigenvalues --   -0.53887  -0.52018  -0.48790  -0.47265  -0.46827
 Alpha  occ. eigenvalues --   -0.44848  -0.43932  -0.42501  -0.42052  -0.39937
 Alpha  occ. eigenvalues --   -0.39509  -0.38045  -0.37134  -0.33336  -0.28445
 Alpha  occ. eigenvalues --   -0.24826  -0.24212  -0.23823  -0.23214
 Alpha virt. eigenvalues --   -0.03803   0.04035   0.08074   0.09051   0.11309
 Alpha virt. eigenvalues --    0.12647   0.13506   0.13962   0.14580   0.15752
 Alpha virt. eigenvalues --    0.16050   0.16847   0.17760   0.17963   0.19127

 Mulliken charges:
               1
     1  C   -0.316820
     2  N   -0.276611
     3  C   -0.109682
     4  N   -0.029742
     5  C    0.130655
     6  N   -0.473547
     7  N   -0.079679
     8  N   -0.144788
     9  C   -0.074306
    10  N   -0.498875
    11  H    0.130713
    12  H    0.102853
    13  H    0.130582
    14  H    0.228636
    15  H    0.121029
    16  H    0.116948
    17  H    0.142854
    18  H    0.234357
    19  H    0.093651
    20  H    0.107413
    21  H    0.233877
    22  H    0.230482
 Sum of Mulliken charges =  -0.00000

 Dipole moment (field-independent basis, Debye):
    X=             -0.7422    Y=             -3.0410    Z=              1.2858  Tot=              3.3840
 Quadrupole moment (field-independent basis, Debye-Ang):
   XX=            -45.4083   YY=            -67.9080   ZZ=            -61.1182
   XY=             -6.8309   XZ=             -0.8644   YZ=              1.3997

  Exact polarizability: 136.561   8.227  86.122  -1.521  -4.367  64.982
 Approx polarizability: 180.580  17.472 127.608  -2.400  -9.061  98.707

                      1                      2                      3
                      A                      A                      A
 Frequencies --     40.7189                70.5361                87.6876
 Red. masses --      3.6914                 2.9227                 3.0633
 Frc consts  --      0.0036                 0.0086                 0.0139
 IR Inten    --      1.2331                 2.8855                 1.9364

                      4                      5                      6
                      A                      A                      A
 Frequencies --    118.0733               140.4800               153.2245
 Red. masses --      2.5130                 3.6184                 1.7994
 Frc consts  --      0.0206                 0.0421                 0.0249
 IR Inten    --      1.2786                 3.2570                18.5560

                      7                      8                      9
                      A                      A                      A
 Frequencies --    182.3318               212.1860               235.5443
 Red. masses --      1.6193                 2.0021                 1.2794
 Frc consts  --      0.0317                 0.0531                 0.0418
 IR Inten    --     13.4624                20.5581                 1.8555

                     10                     11                     12
                      A                      A                      A
 Frequencies --    293.4078               301.2400               345.0201
 Red. masses --      3.5452                 2.4810                 5.0729
 Frc consts  --      0.1798                 0.1326                 0.3558
 IR Inten    --     12.4849                 4.7006                 1.5205

                     13                     14                     15
                      A                      A                      A
 Frequencies --    367.1316               442.0635               500.3281
 Red. masses --      4.7159                 3.9573                 4.1419
 Frc consts  --      0.3745                 0.4556                 0.6109
 IR Inten    --      0.5278                18.9928                11.2235

                     16                     17                     18
                      A                      A                      A
 Frequencies --    580.3929               737.9719               802.0677
 Red. masses --      3.9726                 3.9923                 1.2853
 Frc consts  --      0.7884                 1.2810                 0.4872
 IR Inten    --      8.8245                14.1993                66.2033

                     19                     20                     21
                      A                      A                      A
 Frequencies --    860.0205               871.2729               885.1065
 Red. masses --      1.2849                 2.1751                 2.7502
 Frc consts  --      0.5599                 0.9728                 1.2694
 IR Inten    --    133.7796                22.1633                29.4754

                     22                     23                     24
                      A                      A                      A
 Frequencies --    983.0450              1002.7416              1019.2188
 Red. masses --      2.2399                 2.0368                 2.3280
 Frc consts  --      1.2754                 1.2067                 1.4248
 IR Inten    --      4.4479                58.7791                65.6423

                     25                     26                     27
                      A                      A                      A
 Frequencies --   1058.3285              1095.7676              1111.8119
 Red. masses --      1.7094                 2.3731                 1.2162
 Frc consts  --      1.1281                 1.6788                 0.8858
 IR Inten    --     19.1551               103.0619                73.2565

                     28                     29                     30
                      A                      A                      A
 Frequencies --   1128.8391              1146.6101              1184.2064
 Red. masses --      2.1616                 2.0464                 1.8822
 Frc consts  --      1.6229                 1.5852                 1.5552
 IR Inten    --     62.5987                32.8501               131.2295

                     31                     32                     33
                      A                      A                      A
 Frequencies --   1222.0650              1231.6974              1253.8517
 Red. masses --      1.5732                 1.4441                 1.8680
 Frc consts  --      1.3843                 1.2908                 1.7303
 IR Inten    --     70.0913                 5.8635                60.1491

                     34                     35                     36
                      A                      A                      A
 Frequencies --   1308.8840              1343.1521              1352.0563
 Red. masses --      1.2902                 1.4712                 3.4082
 Frc consts  --      1.3023                 1.5637                 3.6709
 IR Inten    --     26.0265                50.8124               208.8309

                     37                     38                     39
                      A                      A                      A
 Frequencies --   1405.1962              1418.3077              1428.5528
 Red. masses --      1.2007                 1.2467                 1.3667
 Frc consts  --      1.3968                 1.4776                 1.6434
 IR Inten    --     14.7766                65.3681                15.9474

                     40                     41                     42
                      A                      A                      A
 Frequencies --   1460.3637              1482.6531              1491.3130
 Red. masses --      1.1628                 1.2232                 1.0619
 Frc consts  --      1.4611                 1.5843                 1.3915
 IR Inten    --      0.4908                28.6491                 8.8774

                     43                     44                     45
                      A                      A                      A
 Frequencies --   1506.3943              1507.0202              1518.2497
 Red. masses --      1.0834                 1.0967                 1.0536
 Frc consts  --      1.4484                 1.4675                 1.4310
 IR Inten    --     16.1585                 1.6096                 8.2140

                     46                     47                     48
                      A                      A                      A
 Frequencies --   1612.5650              1643.4579              1702.3755
 Red. masses --      9.6897                 1.0929                 7.1718
 Frc consts  --     14.8455                 1.7392                12.2459
 IR Inten    --    145.4015                24.9937               134.2800

                     49                     50                     51
                      A                      A                      A
 Frequencies --   2939.4618              2956.6117              2991.1772
 Red. masses --      1.0683                 1.0575                 1.0577
 Frc consts  --      5.4383                 5.4466                 5.5759
 IR Inten    --     76.5886                79.1707                43.7934

                     52                     53                     54
                      A                      A                      A
 Frequencies --   3035.6857              3045.0739              3062.4536
 Red. masses --      1.1042                 1.0921                 1.0776
 Frc consts  --      5.9953                 5.9664                 5.9546
 IR Inten    --     23.3896                33.5643                28.7677

                     55                     56                     57
                      A                      A                      A
 Frequencies --   3115.8086              3180.9074              3443.7614
 Red. masses --      1.1001                 1.0904                 1.0728
 Frc consts  --      6.2923                 6.5004                 7.4958
 IR Inten    --     21.0925                 3.7750                18.3661

                     58                     59                     60
                      A                      A                      A
 Frequencies --   3490.6706              3516.2984              3574.0762
 Red. masses --      1.0492                 1.0741                 1.0920
 Frc consts  --      7.5324                 7.8249                 8.2189
 IR Inten    --      0.1193                 1.3616                 0.8214

 - Thermochemistry -
 -------------------
 Temperature   298.150 Kelvin.  Pressure   1.00000 Atm.
 Atom     1 has atomic number  6 and mass  12.00000

 Molecular mass:   144.11234 amu.
 Principal axes and moments of inertia in atomic units:
                           1         2         3
     Eigenvalues --   780.333452952.454943461.64988
           X            0.99987  -0.01615   0.00025
           Y            0.01615   0.99987  -0.00182
           Z           -0.00022   0.00182   1.00000
 This molecule is an asymmetric top.
 Rotational symmetry number  1.
 Warning -- assumption of classical behavior for rotation
           may cause significant error
 Rotational temperatures (Kelvin)      0.11100     0.02934     0.02502
 Rotational constants (GHZ):           2.31278     0.61127     0.52135
 Zero-point vibrational energy     491650.3 (Joules/Mol)
                                  117.50725 (Kcal/Mol)
 Warning -- explicit consideration of  16 degrees of freedom as
           vibrations may cause significant error
 Vibrational temperatures:     58.59   101.49   126.16   169.88   202.12
          (Kelvin)            220.46   262.33   305.29   338.90   422.15
                              433.42   496.41   528.22   636.03   719.86
                              835.06  1061.78  1154.00  1237.38  1253.57
                             1273.47  1414.38  1442.72  1466.43  1522.70
                             1576.57  1599.65  1624.15  1649.72  1703.81
                             1758.28  1772.14  1804.01  1883.19  1932.50
                             1945.31  2021.76  2040.63  2055.37  2101.14
                             2133.21  2145.67  2167.37  2168.27  2184.42
                             2320.12  2364.57  2449.34  4229.23  4253.90
                             4303.64  4367.67  4381.18  4406.19  4482.95
                             4576.62  4954.80  5022.30  5059.17  5142.30

 Zero-point correction=                           0.187260 (Hartree/Particle)
 Thermal correction to Energy=                    0.199094
 Thermal correction to Enthalpy=                  0.200038
 Thermal correction to Gibbs Free Energy=         0.148697
 Sum of electronic and zero-point Energies=           -487.910638
 Sum of electronic and thermal Energies=              -487.898804
 Sum of electronic and thermal Enthalpies=            -487.897860
 Sum of electronic and thermal Free Energies=         -487.949200

                     E (Thermal)             CV                S
                      KCal/Mol        Cal/Mol-Kelvin    Cal/Mol-Kelvin
 Total                  124.933             40.844            108.055
 Electronic               0.000              0.000              0.000
 Translational            0.889              2.981             40.807
 Rotational               0.889              2.981             30.457
 Vibrational            123.156             34.882             36.791
 Vibration     1          0.594              1.981              5.224
 Vibration     2          0.598              1.968              4.138
 Vibration     3          0.601              1.958              3.711
 Vibration     4          0.608              1.934              3.132
 Vibration     5          0.615              1.913              2.797
 Vibration     6          0.619              1.899              2.632
 Vibration     7          0.630              1.864              2.304
 Vibration     8          0.643              1.822              2.025
 Vibration     9          0.655              1.786              1.836
 Vibration    10          0.688              1.686              1.454
 Vibration    11          0.693              1.671              1.410
 Vibration    12          0.723              1.585              1.189
 Vibration    13          0.740              1.540              1.092
 Vibration    14          0.802              1.378              0.820
 Vibration    15          0.856              1.249              0.657
 Vibration    16          0.937              1.074              0.485

                           ! Non-Optimized Parameters !
 Normal termination of Gaussian 16 at Mon May 31 23:53:24 2021.
