 Gaussian 16, Revision A.03,
 Gaussian 16:  ES64L-G16RevA.03 25-Dec-2016

 -----------------------------
 # opt freq b3lyp/6-31g(2df,p)
 -----------------------------

 -------------------
 Title Card Required
 -------------------
 Symbolic Z-matrix:
 Charge =  0 Multiplicity = 1

 SCF Done:  E(RB3LYP) =  -458.473795245     A.U. after   12 cycles
 SCF Done:  E(RB3LYP) =  -458.480098192     A.U. after   10 cycles
 SCF Done:  E(RB3LYP) =  -458.480953937     A.U. after    9 cycles
 SCF Done:  E(RB3LYP) =  -458.481091923     A.U. after    9 cycles
 SCF Done:  E(RB3LYP) =  -458.481230341     A.U. after   10 cycles
 SCF Done:  E(RB3LYP) =  -458.481290937     A.U. after   10 cycles
 SCF Done:  E(RB3LYP) =  -458.481401708     A.U. after   10 cycles
 SCF Done:  E(RB3LYP) =  -458.481482017     A.U. after    9 cycles
 SCF Done:  E(RB3LYP) =  -458.481492022     A.U. after    9 cycles
 SCF Done:  E(RB3LYP) =  -458.481495583     A.U. after    9 cycles
 SCF Done:  E(RB3LYP) =  -458.488094211     A.U. after    8 cycles
 SCF Done:  E(RB3LYP) =  -458.488095672     A.U. after    7 cycles
 SCF Done:  E(RB3LYP) =  -458.488096458     A.U. after    7 cycles
 SCF Done:  E(RB3LYP) =  -458.488097410     A.U. after    8 cycles
 SCF Done:  E(RB3LYP) =  -458.488098209     A.U. after    7 cycles
 SCF Done:  E(RB3LYP) =  -458.488099111     A.U. after    8 cycles
 SCF Done:  E(RB3LYP) =  -458.488099607     A.U. after    7 cycles
 SCF Done:  E(RB3LYP) =  -458.488099781     A.U. after    7 cycles
 SCF Done:  E(RB3LYP) =  -458.488099809     A.U. after    6 cycles
 Optimization completed.
    -- Stationary point found.
 Normal termination of Gaussian 16 at Tue Jun  1 05:52:11 2021.

 ----------------------------------------------------------------------
 #N Geom=AllCheck Guess=TCheck SCRF=Check GenChk RB3LYP/6-31G(2df,p) Fr
 eq
 ----------------------------------------------------------------------

 Structure from the checkpoint file:  "CNCNCCCpNpCN.chk"
 -------------------
 Title Card Required
 -------------------
 Charge =  0 Multiplicity = 1

                         Standard orientation:
 ---------------------------------------------------------------------
 Center     Atomic      Atomic             Coordinates (Angstroms)
 Number     Number       Type             X           Y           Z
 ---------------------------------------------------------------------
      1          6           0        5.160291    0.194372    0.115572
      2          7           0        3.917338   -0.420087   -0.331067
      3          6           0        2.742593    0.238386    0.214819
      4          7           0        1.528995   -0.416061   -0.243976
      5          6           0        0.313164    0.227745    0.238989
      6          6           0       -0.931828   -0.530572   -0.220786
      7          6           0       -2.260522    0.115924    0.210386
      8          7           0       -2.502645    1.462716   -0.331411
      9          6           0       -3.460223   -0.773829   -0.174554
     10          7           0       -4.767578   -0.293012    0.265826
     11          1           0        6.009415   -0.379966   -0.265023
     12          1           0        5.262756    0.274835    1.213541
     13          1           0        5.234031    1.207865   -0.295453
     14          1           0        3.911034   -1.396879   -0.051459
     15          1           0        2.731521    1.272279   -0.158304
     16          1           0        2.784185    0.313321    1.329473
     17          1           0        1.533384   -1.384049    0.068442
     18          1           0        0.296618    1.247243   -0.168791
     19          1           0        0.290095    0.335791    1.342274
     20          1           0       -0.891452   -1.554916    0.177630
     21          1           0       -0.905021   -0.623553   -1.314571
     22          1           0       -2.262306    0.219552    1.305673
     23          1           0       -2.340334    1.461819   -1.336213
     24          1           0       -1.852797    2.135126    0.062047
     25          1           0       -3.304481   -1.785682    0.217048
     26          1           0       -3.480648   -0.867843   -1.270462
     27          1           0       -4.813900    0.699065    0.041212
     28          1           0       -4.815719   -0.341046    1.280774
 ---------------------------------------------------------------------

 SCF Done:  E(RB3LYP) =  -458.488099809     A.U. after    1 cycles

 The electronic state is 1-A.
 Alpha  occ. eigenvalues --  -14.31274 -14.31247 -14.31198 -14.29290 -10.22665
 Alpha  occ. eigenvalues --  -10.20758 -10.20675 -10.20033 -10.19528 -10.17917
 Alpha  occ. eigenvalues --   -0.92757  -0.89526  -0.87166  -0.85263  -0.75702
 Alpha  occ. eigenvalues --   -0.69757  -0.66408  -0.62205  -0.60680  -0.57860
 Alpha  occ. eigenvalues --   -0.50666  -0.48936  -0.48406  -0.46713  -0.46066
 Alpha  occ. eigenvalues --   -0.44941  -0.42631  -0.42382  -0.40345  -0.39479
 Alpha  occ. eigenvalues --   -0.38961  -0.37849  -0.36179  -0.35425  -0.34486
 Alpha  occ. eigenvalues --   -0.34076  -0.33158  -0.24338  -0.22930  -0.22413
 Alpha  occ. eigenvalues --   -0.21731
 Alpha virt. eigenvalues --    0.06971   0.07734   0.09795   0.10274   0.10435
 Alpha virt. eigenvalues --    0.12174   0.12266   0.14566   0.15681   0.16012
 Alpha virt. eigenvalues --    0.16370   0.16805   0.17614   0.18260   0.18819

 Mulliken charges:
               1
     1  C   -0.310913
     2  N   -0.284804
     3  C   -0.054443
     4  N   -0.302686
     5  C   -0.131493
     6  C   -0.199134
     7  C    0.020031
     8  N   -0.513053
     9  C   -0.134784
    10  N   -0.506884
    11  H    0.119340
    12  H    0.091917
    13  H    0.123615
    14  H    0.209074
    15  H    0.104302
    16  H    0.051035
    17  H    0.204669
    18  H    0.091685
    19  H    0.072087
    20  H    0.086116
    21  H    0.103068
    22  H    0.067971
    23  H    0.223758
    24  H    0.231271
    25  H    0.095384
    26  H    0.094799
    27  H    0.232789
    28  H    0.215283
 Sum of Mulliken charges =  -0.00000

 Dipole moment (field-independent basis, Debye):
    X=              2.1635    Y=              0.1639    Z=              1.8944  Tot=              2.8803
 Quadrupole moment (field-independent basis, Debye-Ang):
   XX=            -77.7318   YY=            -60.7408   ZZ=            -64.6378
   XY=             -3.7173   XZ=              1.7578   YZ=             -2.6004

  Exact polarizability: 126.734   0.498  88.972  -0.734  -0.059  82.306
 Approx polarizability: 136.988  -1.116 133.953  -1.179  -0.343 128.881

                      1                      2                      3
                      A                      A                      A
 Frequencies --     35.9266                38.5537                65.1891
 Red. masses --      2.1128                 3.0972                 3.6045
 Frc consts  --      0.0016                 0.0027                 0.0090
 IR Inten    --      1.9861                 1.5480                 0.7263

                      4                      5                      6
                      A                      A                      A
 Frequencies --     86.4744               100.6086               138.5044
 Red. masses --      2.2439                 2.6929                 2.4039
 Frc consts  --      0.0099                 0.0161                 0.0272
 IR Inten    --      1.8352                 0.7548                 0.6252

                      7                      8                      9
                      A                      A                      A
 Frequencies --    163.1734               180.4258               234.3520
 Red. masses --      2.1006                 3.4807                 2.9742
 Frc consts  --      0.0330                 0.0668                 0.0962
 IR Inten    --      2.2742                 2.3821                 2.0526

                     10                     11                     12
                      A                      A                      A
 Frequencies --    244.3064               266.0776               281.7184
 Red. masses --      1.1443                 1.4052                 1.8742
 Frc consts  --      0.0402                 0.0586                 0.0876
 IR Inten    --      1.1248                14.1013                24.3887

                     13                     14                     15
                      A                      A                      A
 Frequencies --    322.1825               352.6286               438.0194
 Red. masses --      1.3222                 2.6287                 2.2692
 Frc consts  --      0.0809                 0.1926                 0.2565
 IR Inten    --     30.7844                10.0579                 0.7766

                     16                     17                     18
                      A                      A                      A
 Frequencies --    475.5444               483.7002               584.0605
 Red. masses --      3.0546                 2.8418                 2.6883
 Frc consts  --      0.4070                 0.3917                 0.5403
 IR Inten    --      5.4526                 2.0069                 9.2804

                     19                     20                     21
                      A                      A                      A
 Frequencies --    764.9149               786.5452               795.6945
 Red. masses --      1.2220                 1.1939                 1.2281
 Frc consts  --      0.4213                 0.4352                 0.4581
 IR Inten    --      2.1332                39.0255               135.8971

                     22                     23                     24
                      A                      A                      A
 Frequencies --    835.8654               863.6895               910.5466
 Red. masses --      2.1104                 1.5790                 1.5344
 Frc consts  --      0.8688                 0.6940                 0.7495
 IR Inten    --     55.0493                72.1046                60.9017

                     25                     26                     27
                      A                      A                      A
 Frequencies --    953.5403               981.0841               998.9413
 Red. masses --      1.6371                 2.1056                 1.9072
 Frc consts  --      0.8770                 1.1941                 1.1213
 IR Inten    --    219.9223                12.9301                11.1325

                     28                     29                     30
                      A                      A                      A
 Frequencies --   1043.4183              1056.2119              1064.2869
 Red. masses --      2.1579                 1.8636                 2.1730
 Frc consts  --      1.3842                 1.2249                 1.4502
 IR Inten    --      7.0186                 7.7628                12.9936

                     31                     32                     33
                      A                      A                      A
 Frequencies --   1077.2948              1100.1936              1131.4203
 Red. masses --      1.6382                 1.5780                 2.0858
 Frc consts  --      1.1202                 1.1254                 1.5732
 IR Inten    --     10.6133                 1.9510                 6.7334

                     34                     35                     36
                      A                      A                      A
 Frequencies --   1136.2583              1152.6545              1162.6455
 Red. masses --      1.7206                 2.2838                 3.5570
 Frc consts  --      1.3088                 1.7877                 2.8329
 IR Inten    --      8.5785                36.2060               103.5110

                     37                     38                     39
                      A                      A                      A
 Frequencies --   1174.2398              1193.8455              1243.5940
 Red. masses --      1.8234                 1.6900                 1.5225
 Frc consts  --      1.4813                 1.4191                 1.3873
 IR Inten    --     30.6834                 4.7554                 8.2558

                     40                     41                     42
                      A                      A                      A
 Frequencies --   1281.0078              1284.1838              1307.6077
 Red. masses --      1.3995                 1.2868                 1.3715
 Frc consts  --      1.3531                 1.2503                 1.3816
 IR Inten    --      5.1045                 7.3724                 1.5467

                     43                     44                     45
                      A                      A                      A
 Frequencies --   1326.9864              1343.9848              1381.3174
 Red. masses --      1.1902                 1.3264                 1.2991
 Frc consts  --      1.2348                 1.4116                 1.4604
 IR Inten    --      2.3814                 1.4873                 0.9060

                     46                     47                     48
                      A                      A                      A
 Frequencies --   1387.8271              1403.9609              1411.7590
 Red. masses --      1.3398                 1.2592                 1.2768
 Frc consts  --      1.5204                 1.4624                 1.4993
 IR Inten    --     45.3431                 5.1765                 6.8933

                     49                     50                     51
                      A                      A                      A
 Frequencies --   1428.2111              1457.3612              1478.3435
 Red. masses --      1.3795                 1.1725                 1.0890
 Frc consts  --      1.6579                 1.4673                 1.4022
 IR Inten    --      1.2008                12.6585                 0.1351

                     52                     53                     54
                      A                      A                      A
 Frequencies --   1480.5154              1488.7813              1491.3908
 Red. masses --      1.1889                 1.0914                 1.1197
 Frc consts  --      1.5354                 1.4253                 1.4673
 IR Inten    --     53.6852                 1.4811                14.5541

                     55                     56                     57
                      A                      A                      A
 Frequencies --   1504.9254              1518.5256              1520.8409
 Red. masses --      1.1607                 1.0802                 1.0869
 Frc consts  --      1.5489                 1.4675                 1.4812
 IR Inten    --      8.3292                 2.1479                 5.0429

                     58                     59                     60
                      A                      A                      A
 Frequencies --   1540.3595              1654.4411              1672.2769
 Red. masses --      1.1123                 1.0930                 1.0835
 Frc consts  --      1.5550                 1.7626                 1.7852
 IR Inten    --      0.0357                18.9121                18.5579

                     61                     62                     63
                      A                      A                      A
 Frequencies --   2786.6553              2895.7501              2935.6258
 Red. masses --      1.0730                 1.0730                 1.0604
 Frc consts  --      4.9091                 5.3010                 5.3841
 IR Inten    --    119.6975                75.4047                96.7723

                     64                     65                     66
                      A                      A                      A
 Frequencies --   2992.7973              3000.1235              3006.8507
 Red. masses --      1.0757                 1.0636                 1.0731
 Frc consts  --      5.6769                 5.6406                 5.7164
 IR Inten    --      1.2096                12.9866                62.9477

                     67                     68                     69
                      A                      A                      A
 Frequencies --   3014.1388              3025.4524              3050.8639
 Red. masses --      1.0832                 1.0816                 1.0981
 Frc consts  --      5.7979                 5.8330                 6.0219
 IR Inten    --     16.8040                44.2798                24.8964

                     70                     71                     72
                      A                      A                      A
 Frequencies --   3053.9585              3064.8035              3106.0927
 Red. masses --      1.0736                 1.0979                 1.1001
 Frc consts  --      5.8997                 6.0761                 6.2532
 IR Inten    --     41.4418                64.7333                28.9346

                     73                     74                     75
                      A                      A                      A
 Frequencies --   3469.2118              3479.0974              3484.3564
 Red. masses --      1.0489                 1.0510                 1.0730
 Frc consts  --      7.4378                 7.4952                 7.6754
 IR Inten    --      3.3039                 0.4734                 1.0554

                     76                     77                     78
                      A                      A                      A
 Frequencies --   3499.3025              3542.9468              3569.5013
 Red. masses --      1.0734                 1.0909                 1.0901
 Frc consts  --      7.7442                 8.0681                 8.1832
 IR Inten    --      0.8987                 2.6733                 0.4033

 - Thermochemistry -
 -------------------
 Temperature   298.150 Kelvin.  Pressure   1.00000 Atm.
 Atom     1 has atomic number  6 and mass  12.00000

 Molecular mass:   146.15315 amu.
 Principal axes and moments of inertia in atomic units:
                           1         2         3
     Eigenvalues --   333.483495401.347595580.19262
           X            0.99999   0.00282   0.00353
           Y           -0.00281   0.99999  -0.00290
           Z           -0.00354   0.00289   0.99999
 This molecule is an asymmetric top.
 Rotational symmetry number  1.
 Rotational temperatures (Kelvin)      0.25972     0.01604     0.01552
 Rotational constants (GHZ):           5.41179     0.33413     0.32342
 Zero-point vibrational energy     677448.0 (Joules/Mol)
                                  161.91397 (Kcal/Mol)
 Warning -- explicit consideration of  18 degrees of freedom as
           vibrations may cause significant error
 Vibrational temperatures:     51.69    55.47    93.79   124.42   144.75
          (Kelvin)            199.28   234.77   259.59   337.18   351.50
                              382.83   405.33   463.55   507.35   630.21
                              684.20   695.94   840.33  1100.54  1131.66
                             1144.83  1202.62  1242.66  1310.07  1371.93
                             1411.56  1437.25  1501.25  1519.65  1531.27
                             1549.99  1582.93  1627.86  1634.82  1658.41
                             1672.79  1689.47  1717.68  1789.25  1843.08
                             1847.65  1881.36  1909.24  1933.69  1987.41
                             1996.77  2019.99  2031.21  2054.88  2096.82
                             2127.01  2130.13  2142.02  2145.78  2165.25
                             2184.82  2188.15  2216.23  2380.37  2406.03
                             4009.38  4166.34  4223.71  4305.97  4316.51
                             4326.19  4336.67  4352.95  4389.51  4393.97
                             4409.57  4468.97  4991.42  5005.65  5013.21
                             5034.72  5097.51  5135.72

 Zero-point correction=                           0.258026 (Hartree/Particle)
 Thermal correction to Energy=                    0.271312
 Thermal correction to Enthalpy=                  0.272256
 Thermal correction to Gibbs Free Energy=         0.217188
 Sum of electronic and zero-point Energies=           -458.230073
 Sum of electronic and thermal Energies=              -458.216788
 Sum of electronic and thermal Enthalpies=            -458.215844
 Sum of electronic and thermal Free Energies=         -458.270911

                     E (Thermal)             CV                S
                      KCal/Mol        Cal/Mol-Kelvin    Cal/Mol-Kelvin
 Total                  170.251             46.740            115.900
 Electronic               0.000              0.000              0.000
 Translational            0.889              2.981             40.849
 Rotational               0.889              2.981             30.687
 Vibrational            168.473             40.778             44.364
 Vibration     1          0.594              1.982              5.472
 Vibration     2          0.594              1.981              5.332
 Vibration     3          0.597              1.971              4.294
 Vibration     4          0.601              1.959              3.738
 Vibration     5          0.604              1.949              3.442
 Vibration     6          0.614              1.915              2.824
 Vibration     7          0.623              1.888              2.513
 Vibration     8          0.629              1.866              2.324
 Vibration     9          0.654              1.788              1.845
 Vibration    10          0.660              1.772              1.771
 Vibration    11          0.672              1.735              1.622
 Vibration    12          0.681              1.707              1.523
 Vibration    13          0.707              1.631              1.299
 Vibration    14          0.729              1.570              1.154
 Vibration    15          0.798              1.387              0.833
 Vibration    16          0.832              1.304              0.722
 Vibration    17          0.840              1.286              0.700
 Vibration    18          0.941              1.066              0.478

 Optimization completed.
    -- Stationary point found.
 Normal termination of Gaussian 16 at Tue Jun  1 06:38:50 2021.
