 Gaussian 16, Revision A.03,
 Gaussian 16:  ES64L-G16RevA.03 25-Dec-2016

 -----------------------------
 # opt freq b3lyp/6-31g(2df,p)
 -----------------------------

 -------------------
 Title Card Required
 -------------------
 Symbolic Z-matrix:
 Charge =  0 Multiplicity = 1

 SCF Done:  E(RB3LYP) =  -472.030312178     A.U. after   13 cycles
 SCF Done:  E(RB3LYP) =  -472.039140224     A.U. after   13 cycles
 SCF Done:  E(RB3LYP) =  -472.042181567     A.U. after   14 cycles
 SCF Done:  E(RB3LYP) =  -472.047473022     A.U. after   14 cycles
 SCF Done:  E(RB3LYP) =  -472.049755981     A.U. after   14 cycles
 SCF Done:  E(RB3LYP) =  -472.050507715     A.U. after   13 cycles
 SCF Done:  E(RB3LYP) =  -472.050854607     A.U. after   11 cycles
 SCF Done:  E(RB3LYP) =  -472.051132704     A.U. after   11 cycles
 SCF Done:  E(RB3LYP) =  -472.051685093     A.U. after   12 cycles
 SCF Done:  E(RB3LYP) =  -472.052624948     A.U. after   13 cycles
 SCF Done:  E(RB3LYP) =  -472.061409942     A.U. after   11 cycles
 SCF Done:  E(RB3LYP) =  -472.061485883     A.U. after   10 cycles
 SCF Done:  E(RB3LYP) =  -472.061521773     A.U. after   10 cycles
 SCF Done:  E(RB3LYP) =  -472.061542211     A.U. after    9 cycles
 SCF Done:  E(RB3LYP) =  -472.061555303     A.U. after   10 cycles
 SCF Done:  E(RB3LYP) =  -472.061557693     A.U. after    9 cycles
 SCF Done:  E(RB3LYP) =  -472.061558344     A.U. after    8 cycles
 SCF Done:  E(RB3LYP) =  -472.061558496     A.U. after    8 cycles
 SCF Done:  E(RB3LYP) =  -472.061558531     A.U. after    6 cycles
 Optimization completed.
    -- Stationary point found.
 Normal termination of Gaussian 16 at Tue Jun  1 09:05:59 2021.

 ----------------------------------------------------------------------
 #N Geom=AllCheck Guess=TCheck SCRF=Check GenChk RB3LYP/6-31G(2df,p) Fr
 eq
 ----------------------------------------------------------------------

 Structure from the checkpoint file:  "CNCNCNpCpNCtN.chk"
 -------------------
 Title Card Required
 -------------------
 Charge =  0 Multiplicity = 1

                         Standard orientation:
 ---------------------------------------------------------------------
 Center     Atomic      Atomic             Coordinates (Angstroms)
 Number     Number       Type             X           Y           Z
 ---------------------------------------------------------------------
      1          6           0       -3.684315   -0.987639   -0.320447
      2          7           0       -2.645079   -0.283642    0.425849
      3          6           0       -1.777907    0.523515   -0.432216
      4          7           0       -0.863515    1.367080    0.318124
      5          6           0        0.312764    0.715903    0.844911
      6          7           0        1.324748    0.585047   -0.216073
      7          6           0        1.870343    1.857986   -0.669254
      8          7           0        2.385751   -0.266156    0.185297
      9          6           0        2.191724   -1.578739   -0.007302
     10          7           0        2.061163   -2.717313   -0.195380
     11          1           0       -4.274589   -1.601413    0.365680
     12          1           0       -3.305356   -1.641140   -1.125283
     13          1           0       -4.359976   -0.256545   -0.779075
     14          1           0       -2.081707   -0.967790    0.922301
     15          1           0       -2.432802    1.165767   -1.033891
     16          1           0       -1.171383   -0.070203   -1.135023
     17          1           0       -1.366792    1.847930    1.054095
     18          1           0        0.143502   -0.305802    1.220931
     19          1           0        0.691605    1.321230    1.689002
     20          1           0        1.032678    2.497139   -0.949147
     21          1           0        2.514533    1.688009   -1.533550
     22          1           0        2.455658    2.369707    0.116484
     23          1           0        2.837503   -0.028153    1.068607
 ---------------------------------------------------------------------

 SCF Done:  E(RB3LYP) =  -472.061558531     A.U. after    2 cycles

 The electronic state is 1-A.
 Alpha  occ. eigenvalues --  -14.40766 -14.37684 -14.32857 -14.31547 -14.31474
 Alpha  occ. eigenvalues --  -10.25118 -10.23775 -10.23094 -10.21258 -10.20192
 Alpha  occ. eigenvalues --   -1.02858  -0.93957  -0.89839  -0.87653  -0.83419
 Alpha  occ. eigenvalues --   -0.72188  -0.68251  -0.64720  -0.61587  -0.59884
 Alpha  occ. eigenvalues --   -0.53766  -0.52229  -0.49026  -0.46270  -0.45547
 Alpha  occ. eigenvalues --   -0.44288  -0.43236  -0.40582  -0.39156  -0.38667
 Alpha  occ. eigenvalues --   -0.38002  -0.37404  -0.36687  -0.35145  -0.32538
 Alpha  occ. eigenvalues --   -0.27025  -0.25482  -0.24352  -0.22622
 Alpha virt. eigenvalues --    0.02671   0.05690   0.06760   0.09061   0.09179
 Alpha virt. eigenvalues --    0.11027   0.12408   0.13312   0.15101   0.15547
 Alpha virt. eigenvalues --    0.15990   0.16737   0.17204   0.17661   0.18107

 Mulliken charges:
               1
     1  C   -0.310662
     2  N   -0.293399
     3  C   -0.113075
     4  N   -0.281523
     5  C   -0.119334
     6  N   -0.061617
     7  C   -0.313087
     8  N   -0.352098
     9  C    0.357667
    10  N   -0.341472
    11  H    0.121152
    12  H    0.103623
    13  H    0.121990
    14  H    0.219314
    15  H    0.104724
    16  H    0.113033
    17  H    0.226159
    18  H    0.102568
    19  H    0.083108
    20  H    0.151197
    21  H    0.137268
    22  H    0.091456
    23  H    0.253008
 Sum of Mulliken charges =  -0.00000

 Dipole moment (field-independent basis, Debye):
    X=             -0.5305    Y=              3.6960    Z=              1.8706  Tot=              4.1762
 Quadrupole moment (field-independent basis, Debye-Ang):
   XX=            -59.1962   YY=            -71.5269   ZZ=            -58.8605
   XY=              9.9878   XZ=              5.3352   YZ=             -1.2360

  Exact polarizability:  97.517   2.171 100.037   2.819   1.697  72.561
 Approx polarizability: 119.305   1.733 151.697   4.599   4.794 109.861

                      1                      2                      3
                      A                      A                      A
 Frequencies --     28.9262                52.9423                74.0187
 Red. masses --      4.6395                 2.8085                 4.1691
 Frc consts  --      0.0023                 0.0046                 0.0135
 IR Inten    --      4.8934                 4.7591                 1.2474

                      4                      5                      6
                      A                      A                      A
 Frequencies --     80.0805               111.9225               188.2169
 Red. masses --      2.5878                 2.5146                 3.2048
 Frc consts  --      0.0098                 0.0186                 0.0669
 IR Inten    --      2.5805                 1.4683                 1.3384

                      7                      8                      9
                      A                      A                      A
 Frequencies --    213.6194               245.6742               251.8376
 Red. masses --      2.0575                 1.4982                 1.1734
 Frc consts  --      0.0553                 0.0533                 0.0438
 IR Inten    --      2.5748                 1.0909                 0.6474

                     10                     11                     12
                      A                      A                      A
 Frequencies --    308.1797               326.9170               385.4835
 Red. masses --      2.5514                 2.2768                 2.6715
 Frc consts  --      0.1428                 0.1434                 0.2339
 IR Inten    --      2.6804                 9.8936                 6.2264

                     13                     14                     15
                      A                      A                      A
 Frequencies --    402.1632               491.1174               509.1679
 Red. masses --      2.3085                 3.3249                 3.0897
 Frc consts  --      0.2200                 0.4725                 0.4719
 IR Inten    --     10.2926                12.0797                15.6645

                     16                     17                     18
                      A                      A                      A
 Frequencies --    511.4256               590.7050               650.0210
 Red. masses --      2.5160                 5.3558                 2.2050
 Frc consts  --      0.3877                 1.1011                 0.5489
 IR Inten    --     12.6940                68.9436                29.0569

                     19                     20                     21
                      A                      A                      A
 Frequencies --    717.3968               802.8514               882.7917
 Red. masses --      2.0693                 1.2531                 3.8454
 Frc consts  --      0.6275                 0.4759                 1.7657
 IR Inten    --     84.9473                76.6007                30.4231

                     22                     23                     24
                      A                      A                      A
 Frequencies --    962.5687               973.2325               996.5973
 Red. masses --      2.8371                 1.9145                 1.6365
 Frc consts  --      1.5488                 1.0684                 0.9576
 IR Inten    --      7.7370                 3.4851                53.6917

                     25                     26                     27
                      A                      A                      A
 Frequencies --   1017.3283              1105.9291              1119.9905
 Red. masses --      2.1319                 1.5327                 3.4603
 Frc consts  --      1.3000                 1.1045                 2.5573
 IR Inten    --      1.7951                10.1603                23.9301

                     28                     29                     30
                      A                      A                      A
 Frequencies --   1138.8322              1153.4323              1160.5435
 Red. masses --      2.7147                 1.6848                 2.8398
 Frc consts  --      2.0744                 1.3207                 2.2535
 IR Inten    --     12.9593                21.7952               102.5156

                     31                     32                     33
                      A                      A                      A
 Frequencies --   1171.7954              1206.7594              1233.1458
 Red. masses --      1.8676                 2.1261                 2.4465
 Frc consts  --      1.5109                 1.8242                 2.1919
 IR Inten    --     15.6480                24.3143                15.9330

                     34                     35                     36
                      A                      A                      A
 Frequencies --   1248.8468              1298.6226              1338.0207
 Red. masses --      2.2489                 1.2223                 1.2411
 Frc consts  --      2.0665                 1.2145                 1.3091
 IR Inten    --      5.9205                 5.7269                 8.3156

                     37                     38                     39
                      A                      A                      A
 Frequencies --   1394.3526              1419.7325              1432.6387
 Red. masses --      1.2263                 1.2334                 1.2063
 Frc consts  --      1.4048                 1.4647                 1.4588
 IR Inten    --     25.5209                10.8693                 7.9185

                     40                     41                     42
                      A                      A                      A
 Frequencies --   1457.5254              1470.8369              1482.2549
 Red. masses --      1.1629                 1.2301                 1.1908
 Frc consts  --      1.4555                 1.5679                 1.5414
 IR Inten    --      1.7755                14.6023                17.1245

                     43                     44                     45
                      A                      A                      A
 Frequencies --   1489.3366              1494.4014              1502.2459
 Red. masses --      1.0720                 1.0938                 1.0731
 Frc consts  --      1.4010                 1.4392                 1.4268
 IR Inten    --     14.7747                 5.9083                 2.9816

                     46                     47                     48
                      A                      A                      A
 Frequencies --   1504.4580              1509.6594              1519.0562
 Red. masses --      1.1408                 1.1160                 1.0899
 Frc consts  --      1.5214                 1.4985                 1.4818
 IR Inten    --      5.5898                11.4418                20.2458

                     49                     50                     51
                      A                      A                      A
 Frequencies --   1520.5347              2345.1355              2931.6668
 Red. masses --      1.1266                12.3816                 1.0616
 Frc consts  --      1.5347                40.1201                 5.3758
 IR Inten    --      6.9972               104.3601                54.0379

                     52                     53                     54
                      A                      A                      A
 Frequencies --   2945.5703              2955.7337              2979.5857
 Red. masses --      1.0598                 1.0571                 1.0827
 Frc consts  --      5.4175                 5.4413                 5.6631
 IR Inten    --     94.3891                68.0663                37.0865

                     55                     56                     57
                      A                      A                      A
 Frequencies --   2984.8905              3043.7161              3056.3035
 Red. masses --      1.0819                 1.0961                 1.0770
 Frc consts  --      5.6792                 5.9827                 5.9273
 IR Inten    --     44.2332                38.0527                39.1016

                     58                     59                     60
                      A                      A                      A
 Frequencies --   3104.0700              3105.4819              3160.4773
 Red. masses --      1.0718                 1.1005                 1.1035
 Frc consts  --      6.0848                 6.2533                 6.4940
 IR Inten    --     17.5016                26.8314                 4.6706

                     61                     62                     63
                      A                      A                      A
 Frequencies --   3430.4830              3505.8452              3555.7436
 Red. masses --      1.0733                 1.0734                 1.0739
 Frc consts  --      7.4421                 7.7732                 7.9998
 IR Inten    --     14.8544                 0.4079                 4.8794

 - Thermochemistry -
 -------------------
 Temperature   298.150 Kelvin.  Pressure   1.00000 Atm.
 Atom     1 has atomic number  6 and mass  12.00000

 Molecular mass:   143.11710 amu.
 Principal axes and moments of inertia in atomic units:
                           1         2         3
     Eigenvalues --  1047.635302489.285383264.27030
           X            0.99832   0.05716   0.00920
           Y           -0.05711   0.99835  -0.00572
           Z           -0.00951   0.00518   0.99994
 This molecule is an asymmetric top.
 Rotational symmetry number  1.
 Warning -- assumption of classical behavior for rotation
           may cause significant error
 Rotational temperatures (Kelvin)      0.08268     0.03479     0.02653
 Rotational constants (GHZ):           1.72268     0.72500     0.55288
 Zero-point vibrational energy     521887.9 (Joules/Mol)
                                  124.73420 (Kcal/Mol)
 Warning -- explicit consideration of  17 degrees of freedom as
           vibrations may cause significant error
 Vibrational temperatures:     41.62    76.17   106.50   115.22   161.03
          (Kelvin)            270.80   307.35   353.47   362.34   443.40
                              470.36   554.62   578.62   706.61   732.58
                              735.83   849.89   935.24  1032.17  1155.12
                             1270.14  1384.92  1400.26  1433.88  1463.71
                             1591.19  1611.42  1638.53  1659.53  1669.76
                             1685.95  1736.26  1774.22  1796.81  1868.43
                             1925.11  2006.16  2042.68  2061.25  2097.05
                             2116.21  2132.63  2142.82  2150.11  2161.40
                             2164.58  2172.06  2185.58  2187.71  3374.13
                             4218.01  4238.02  4252.64  4286.96  4294.59
                             4379.23  4397.34  4466.06  4468.10  4547.22
                             4935.70  5044.13  5115.92

 Zero-point correction=                           0.198777 (Hartree/Particle)
 Thermal correction to Energy=                    0.210737
 Thermal correction to Enthalpy=                  0.211681
 Thermal correction to Gibbs Free Energy=         0.159461
 Sum of electronic and zero-point Energies=           -471.862782
 Sum of electronic and thermal Energies=              -471.850821
 Sum of electronic and thermal Enthalpies=            -471.849877
 Sum of electronic and thermal Free Energies=         -471.902097

                     E (Thermal)             CV                S
                      KCal/Mol        Cal/Mol-Kelvin    Cal/Mol-Kelvin
 Total                  132.240             41.869            109.907
 Electronic               0.000              0.000              0.000
 Translational            0.889              2.981             40.787
 Rotational               0.889              2.981             30.521
 Vibrational            130.462             35.908             38.599
 Vibration     1          0.593              1.984              5.902
 Vibration     2          0.596              1.976              4.704
 Vibration     3          0.599              1.966              4.044
 Vibration     4          0.600              1.963              3.889
 Vibration     5          0.607              1.940              3.235
 Vibration     6          0.633              1.856              2.245
 Vibration     7          0.644              1.820              2.013
 Vibration     8          0.660              1.770              1.761
 Vibration     9          0.664              1.760              1.718
 Vibration    10          0.698              1.658              1.372
 Vibration    11          0.711              1.622              1.275
 Vibration    12          0.754              1.501              1.018
 Vibration    13          0.768              1.465              0.955
 Vibration    14          0.847              1.270              0.681
 Vibration    15          0.864              1.230              0.636
 Vibration    16          0.867              1.225              0.630
 Vibration    17          0.948              1.052              0.466

 Optimization completed.
    -- Stationary point found.
 Normal termination of Gaussian 16 at Tue Jun  1 09:45:25 2021.
