 Gaussian 16, Revision A.03,
 Gaussian 16:  ES64L-G16RevA.03 25-Dec-2016

 -----------------------------
 # opt freq b3lyp/6-31g(2df,p)
 -----------------------------

 -------------------
 Title Card Required
 -------------------
 Symbolic Z-matrix:
 Charge =  0 Multiplicity = 1

 SCF Done:  E(RB3LYP) =  -458.471681079     A.U. after   12 cycles
 SCF Done:  E(RB3LYP) =  -458.480307575     A.U. after   10 cycles
 SCF Done:  E(RB3LYP) =  -458.481543250     A.U. after   10 cycles
 SCF Done:  E(RB3LYP) =  -458.481943342     A.U. after   10 cycles
 SCF Done:  E(RB3LYP) =  -458.482126189     A.U. after   10 cycles
 SCF Done:  E(RB3LYP) =  -458.482172125     A.U. after    9 cycles
 SCF Done:  E(RB3LYP) =  -458.482207026     A.U. after    9 cycles
 SCF Done:  E(RB3LYP) =  -458.482232929     A.U. after    9 cycles
 SCF Done:  E(RB3LYP) =  -458.482279061     A.U. after   10 cycles
 SCF Done:  E(RB3LYP) =  -458.482322946     A.U. after   10 cycles
 SCF Done:  E(RB3LYP) =  -458.486278135     A.U. after   10 cycles
 SCF Done:  E(RB3LYP) =  -458.486540527     A.U. after   10 cycles
 SCF Done:  E(RB3LYP) =  -458.486592904     A.U. after   10 cycles
 SCF Done:  E(RB3LYP) =  -458.486645700     A.U. after    9 cycles
 SCF Done:  E(RB3LYP) =  -458.486647605     A.U. after    7 cycles
 SCF Done:  E(RB3LYP) =  -458.486648589     A.U. after    8 cycles
 SCF Done:  E(RB3LYP) =  -458.486649871     A.U. after    7 cycles
 SCF Done:  E(RB3LYP) =  -458.486653562     A.U. after    8 cycles
 SCF Done:  E(RB3LYP) =  -458.486653755     A.U. after    7 cycles
 Optimization completed.
    -- Stationary point found.
 Normal termination of Gaussian 16 at Tue Jun  1 16:29:24 2021.

 ----------------------------------------------------------------------
 #N Geom=AllCheck Guess=TCheck SCRF=Check GenChk RB3LYP/6-31G(2df,p) Fr
 eq
 ----------------------------------------------------------------------

 Structure from the checkpoint file:  "CNCNCpCpCNCN.chk"
 -------------------
 Title Card Required
 -------------------
 Charge =  0 Multiplicity = 1

                         Standard orientation:
 ---------------------------------------------------------------------
 Center     Atomic      Atomic             Coordinates (Angstroms)
 Number     Number       Type             X           Y           Z
 ---------------------------------------------------------------------
      1          6           0        4.369363   -0.958892    0.556002
      2          7           0        2.975511   -0.905148    0.132807
      3          6           0        2.599381    0.396916   -0.427033
      4          7           0        1.248293    0.440169   -0.944026
      5          6           0        0.158835    0.462039    0.042651
      6          6           0        0.021553    1.861791    0.651616
      7          6           0       -1.126548    0.028376   -0.677280
      8          7           0       -2.270117   -0.036457    0.220758
      9          6           0       -3.454105   -0.634209   -0.371785
     10          7           0       -4.527742   -0.568505    0.610414
     11          1           0        4.583259   -1.935182    1.000747
     12          1           0        4.657553   -0.180312    1.285840
     13          1           0        5.020132   -0.842355   -0.318634
     14          1           0        2.379096   -1.109855    0.928521
     15          1           0        3.295009    0.596927   -1.252822
     16          1           0        2.726514    1.223557    0.293304
     17          1           0        1.130123   -0.361393   -1.556761
     18          1           0        0.311678   -0.257394    0.866889
     19          1           0       -0.234378    2.590685   -0.124629
     20          1           0        0.953875    2.188302    1.120756
     21          1           0       -0.748912    1.875506    1.428527
     22          1           0       -0.970332   -0.980117   -1.084986
     23          1           0       -1.283194    0.696234   -1.545408
     24          1           0       -2.526833    0.891283    0.542961
     25          1           0       -3.179120   -1.656368   -0.688739
     26          1           0       -3.807026   -0.107452   -1.279004
     27          1           0       -4.304110   -1.175643    1.393440
     28          1           0       -5.395825   -0.902960    0.205300
 ---------------------------------------------------------------------

 SCF Done:  E(RB3LYP) =  -458.486653755     A.U. after    1 cycles

 The electronic state is 1-A.
 Alpha  occ. eigenvalues --  -14.30687 -14.30666 -14.30596 -14.30449 -10.22590
 Alpha  occ. eigenvalues --  -10.22016 -10.20599 -10.20000 -10.19682 -10.16799
 Alpha  occ. eigenvalues --   -0.92445  -0.91495  -0.86663  -0.84529  -0.74686
 Alpha  occ. eigenvalues --   -0.68247  -0.66455  -0.62848  -0.60885  -0.56493
 Alpha  occ. eigenvalues --   -0.50841  -0.50001  -0.49029  -0.46388  -0.44793
 Alpha  occ. eigenvalues --   -0.43479  -0.42997  -0.41079  -0.40364  -0.39622
 Alpha  occ. eigenvalues --   -0.38210  -0.37927  -0.36988  -0.36562  -0.34742
 Alpha  occ. eigenvalues --   -0.33644  -0.32462  -0.24038  -0.22820  -0.21956
 Alpha  occ. eigenvalues --   -0.21363
 Alpha virt. eigenvalues --    0.07787   0.08819   0.10135   0.10550   0.11818
 Alpha virt. eigenvalues --    0.12159   0.13944   0.14740   0.15532   0.15988
 Alpha virt. eigenvalues --    0.16737   0.17069   0.17854   0.18591   0.19089

 Mulliken charges:
               1
     1  C   -0.307143
     2  N   -0.288759
     3  C   -0.107117
     4  N   -0.298661
     5  C    0.048910
     6  C   -0.382787
     7  C   -0.150699
     8  N   -0.289446
     9  C   -0.080418
    10  N   -0.513347
    11  H    0.117012
    12  H    0.092205
    13  H    0.120506
    14  H    0.215838
    15  H    0.100145
    16  H    0.085712
    17  H    0.213670
    18  H    0.057970
    19  H    0.118280
    20  H    0.114538
    21  H    0.115639
    22  H    0.093648
    23  H    0.087311
    24  H    0.221010
    25  H    0.082285
    26  H    0.079314
    27  H    0.228369
    28  H    0.226017
 Sum of Mulliken charges =  -0.00000

 Dipole moment (field-independent basis, Debye):
    X=             -0.3977    Y=             -0.9157    Z=              0.3220  Tot=              1.0490
 Quadrupole moment (field-independent basis, Debye-Ang):
   XX=            -58.9502   YY=            -64.4110   ZZ=            -64.2253
   XY=              4.8660   XZ=              4.2487   YZ=             -0.1936

  Exact polarizability: 126.755   0.173  86.973   0.206   0.621  86.096
 Approx polarizability: 142.669   0.310 126.316  -0.956   0.578 130.955

                      1                      2                      3
                      A                      A                      A
 Frequencies --     24.0998                46.7224                75.7681
 Red. masses --      2.9016                 2.8764                 2.1463
 Frc consts  --      0.0010                 0.0037                 0.0073
 IR Inten    --      1.0211                 0.5915                 2.3029

                      4                      5                      6
                      A                      A                      A
 Frequencies --     78.8521               104.7318               115.2947
 Red. masses --      2.0389                 2.8532                 3.2703
 Frc consts  --      0.0075                 0.0184                 0.0256
 IR Inten    --      2.6970                 0.2421                 1.3614

                      7                      8                      9
                      A                      A                      A
 Frequencies --    165.8437               226.5867               240.9403
 Red. masses --      2.0644                 1.4321                 1.1586
 Frc consts  --      0.0335                 0.0433                 0.0396
 IR Inten    --      4.9504                 2.2376                 0.6159

                     10                     11                     12
                      A                      A                      A
 Frequencies --    260.3086               282.4793               288.8806
 Red. masses --      1.8286                 1.9774                 1.7774
 Frc consts  --      0.0730                 0.0930                 0.0874
 IR Inten    --     10.0488                11.0723                21.7786

                     13                     14                     15
                      A                      A                      A
 Frequencies --    314.4805               321.3519               442.4876
 Red. masses --      2.6345                 2.3493                 2.2982
 Frc consts  --      0.1535                 0.1429                 0.2651
 IR Inten    --      0.0526                 7.7166                 3.5001

                     16                     17                     18
                      A                      A                      A
 Frequencies --    475.5669               505.3522               582.2601
 Red. masses --      2.4068                 3.1685                 2.7794
 Frc consts  --      0.3207                 0.4767                 0.5552
 IR Inten    --     13.6844                 8.6856                 1.5789

                     19                     20                     21
                      A                      A                      A
 Frequencies --    745.1880               801.0638               812.6455
 Red. masses --      1.6640                 1.2250                 1.2393
 Frc consts  --      0.5444                 0.4631                 0.4822
 IR Inten    --    103.4594                80.8972                45.1275

                     22                     23                     24
                      A                      A                      A
 Frequencies --    837.8043               862.3628               918.9334
 Red. masses --      2.3846                 1.2512                 1.2779
 Frc consts  --      0.9862                 0.5482                 0.6358
 IR Inten    --      1.8830               152.9336                 8.1619

                     25                     26                     27
                      A                      A                      A
 Frequencies --    936.9130               971.9498               975.7196
 Red. masses --      2.0351                 1.8746                 1.5223
 Frc consts  --      1.0525                 1.0434                 0.8539
 IR Inten    --      4.2004                34.0893                 0.1893

                     28                     29                     30
                      A                      A                      A
 Frequencies --   1021.9018              1076.1734              1088.1109
 Red. masses --      1.6604                 2.4871                 1.9136
 Frc consts  --      1.0216                 1.6971                 1.3349
 IR Inten    --      8.6017                 5.3082                 2.5213

                     31                     32                     33
                      A                      A                      A
 Frequencies --   1104.1449              1115.7731              1125.7723
 Red. masses --      2.1837                 2.8605                 1.9526
 Frc consts  --      1.5686                 2.0982                 1.4580
 IR Inten    --     13.1965                30.4058                 6.6554

                     34                     35                     36
                      A                      A                      A
 Frequencies --   1157.5359              1162.6288              1190.4760
 Red. masses --      2.0386                 2.9615                 2.0834
 Frc consts  --      1.6094                 2.3585                 1.7397
 IR Inten    --     64.4343                73.5124                40.8054

                     37                     38                     39
                      A                      A                      A
 Frequencies --   1197.2418              1218.7397              1230.5564
 Red. masses --      1.8483                 1.5549                 1.7391
 Frc consts  --      1.5610                 1.3607                 1.5516
 IR Inten    --      4.0696                35.2209                 0.6040

                     40                     41                     42
                      A                      A                      A
 Frequencies --   1281.3231              1297.2002              1319.2431
 Red. masses --      1.3686                 1.1785                 1.2295
 Frc consts  --      1.3239                 1.1684                 1.2607
 IR Inten    --     17.1869                 7.5939                19.8520

                     43                     44                     45
                      A                      A                      A
 Frequencies --   1346.7479              1377.5377              1383.4300
 Red. masses --      1.2496                 1.2736                 1.4013
 Frc consts  --      1.3354                 1.4239                 1.5801
 IR Inten    --      3.2960                 7.4776                13.6937

                     46                     47                     48
                      A                      A                      A
 Frequencies --   1402.0039              1407.0394              1443.7928
 Red. masses --      1.2608                 1.2862                 1.3497
 Frc consts  --      1.4601                 1.5002                 1.6576
 IR Inten    --     11.8218                16.3005                 8.7074

                     49                     50                     51
                      A                      A                      A
 Frequencies --   1457.4219              1479.3480              1483.5295
 Red. masses --      1.1680                 1.2010                 1.2104
 Frc consts  --      1.4617                 1.5486                 1.5696
 IR Inten    --      2.1874                57.9557                40.8460

                     52                     53                     54
                      A                      A                      A
 Frequencies --   1488.1058              1491.0154              1502.3948
 Red. masses --      1.1020                 1.0745                 1.0817
 Frc consts  --      1.4378                 1.4074                 1.4386
 IR Inten    --      1.3923                11.0692                12.6587

                     55                     56                     57
                      A                      A                      A
 Frequencies --   1509.9746              1516.0272              1518.3734
 Red. masses --      1.0809                 1.0666                 1.0632
 Frc consts  --      1.4520                 1.4443                 1.4441
 IR Inten    --      4.5559                11.7417                 7.7387

                     58                     59                     60
                      A                      A                      A
 Frequencies --   1524.6464              1539.5495              1642.6165
 Red. masses --      1.2339                 1.0876                 1.1007
 Frc consts  --      1.6899                 1.5188                 1.7498
 IR Inten    --     41.9150                 0.6861                30.4953

                     61                     62                     63
                      A                      A                      A
 Frequencies --   2914.6568              2923.1799              2936.0733
 Red. masses --      1.0614                 1.0729                 1.0797
 Frc consts  --      5.3123                 5.4017                 5.4840
 IR Inten    --     61.4242                23.4150               159.9349

                     64                     65                     66
                      A                      A                      A
 Frequencies --   2937.9688              2938.9999              2956.2296
 Red. masses --      1.0671                 1.0873                 1.0697
 Frc consts  --      5.4268                 5.5335                 5.5080
 IR Inten    --     69.3728                52.9445                75.4948

                     67                     68                     69
                      A                      A                      A
 Frequencies --   3021.3668              3026.5258              3036.9904
 Red. masses --      1.0886                 1.0911                 1.0356
 Frc consts  --      5.8548                 5.8885                 5.6275
 IR Inten    --     40.5713                49.9242                20.8511

                     70                     71                     72
                      A                      A                      A
 Frequencies --   3050.7190              3100.3770              3108.5636
 Red. masses --      1.0735                 1.1005                 1.0997
 Frc consts  --      5.8866                 6.2325                 6.2609
 IR Inten    --     42.7183                28.5901                35.3938

                     73                     74                     75
                      A                      A                      A
 Frequencies --   3111.0386              3496.7625              3508.2842
 Red. masses --      1.1020                 1.0492                 1.0727
 Frc consts  --      6.2839                 7.5588                 7.7793
 IR Inten    --     24.7754                 0.2609                 0.0228

                     76                     77                     78
                      A                      A                      A
 Frequencies --   3513.5824              3522.8812              3583.4517
 Red. masses --      1.0733                 1.0729                 1.0924
 Frc consts  --      7.8070                 7.8454                 8.2650
 IR Inten    --      0.2689                 0.6947                 0.3701

 - Thermochemistry -
 -------------------
 Temperature   298.150 Kelvin.  Pressure   1.00000 Atm.
 Atom     1 has atomic number  6 and mass  12.00000

 Molecular mass:   146.15315 amu.
 Principal axes and moments of inertia in atomic units:
                           1         2         3
     Eigenvalues --   598.020764313.215874507.35390
           X            0.99997   0.00140   0.00734
           Y           -0.00164   0.99947   0.03241
           Z           -0.00729  -0.03242   0.99945
 This molecule is an asymmetric top.
 Rotational symmetry number  1.
 Warning -- assumption of classical behavior for rotation
           may cause significant error
 Rotational temperatures (Kelvin)      0.14483     0.02008     0.01922
 Rotational constants (GHZ):           3.01786     0.41842     0.40040
 Zero-point vibrational energy     677102.0 (Joules/Mol)
                                  161.83126 (Kcal/Mol)
 Warning -- explicit consideration of  18 degrees of freedom as
           vibrations may cause significant error
 Vibrational temperatures:     34.67    67.22   109.01   113.45   150.69
          (Kelvin)            165.88   238.61   326.01   346.66   374.53
                              406.42   415.63   452.47   462.35   636.64
                              684.23   727.09   837.74  1072.16  1152.55
                             1169.22  1205.41  1240.75  1322.14  1348.01
                             1398.42  1403.84  1470.29  1548.37  1565.55
                             1588.62  1605.35  1619.74  1665.44  1672.76
                             1712.83  1722.56  1753.49  1770.50  1843.54
                             1866.38  1898.10  1937.67  1981.97  1990.45
                             2017.17  2024.42  2077.30  2096.91  2128.45
                             2134.47  2141.05  2145.24  2161.61  2172.52
                             2181.22  2184.60  2193.63  2215.07  2363.36
                             4193.54  4205.80  4224.35  4227.08  4228.57
                             4253.36  4347.07  4354.50  4369.55  4389.30
                             4460.75  4472.53  4476.09  5031.06  5047.64
                             5055.26  5068.64  5155.79

 Zero-point correction=                           0.257895 (Hartree/Particle)
 Thermal correction to Energy=                    0.271089
 Thermal correction to Enthalpy=                  0.272034
 Thermal correction to Gibbs Free Energy=         0.216943
 Sum of electronic and zero-point Energies=           -458.228759
 Sum of electronic and thermal Energies=              -458.215564
 Sum of electronic and thermal Enthalpies=            -458.214620
 Sum of electronic and thermal Free Energies=         -458.269711

                     E (Thermal)             CV                S
                      KCal/Mol        Cal/Mol-Kelvin    Cal/Mol-Kelvin
 Total                  170.111             46.499            115.948
 Electronic               0.000              0.000              0.000
 Translational            0.889              2.981             40.849
 Rotational               0.889              2.981             30.831
 Vibrational            168.334             40.537             44.268
 Vibration     1          0.593              1.985              6.264
 Vibration     2          0.595              1.979              4.952
 Vibration     3          0.599              1.965              3.998
 Vibration     4          0.600              1.963              3.919
 Vibration     5          0.605              1.945              3.364
 Vibration     6          0.608              1.937              3.178
 Vibration     7          0.624              1.884              2.482
 Vibration     8          0.650              1.801              1.906
 Vibration     9          0.658              1.778              1.796
 Vibration    10          0.668              1.745              1.660
 Vibration    11          0.682              1.706              1.519
 Vibration    12          0.685              1.694              1.481
 Vibration    13          0.702              1.646              1.339
 Vibration    14          0.707              1.633              1.303
 Vibration    15          0.802              1.377              0.819
 Vibration    16          0.832              1.304              0.722
 Vibration    17          0.861              1.238              0.645
 Vibration    18          0.939              1.070              0.481

                           ! Non-Optimized Parameters !
 Normal termination of Gaussian 16 at Tue Jun  1 17:18:11 2021.
