 Gaussian 16, Revision A.03,
 Gaussian 16:  ES64L-G16RevA.03 25-Dec-2016

 -----------------------------
 # opt freq b3lyp/6-31g(2df,p)
 -----------------------------

 -------------------
 Title Card Required
 -------------------
 Symbolic Z-matrix:
 Charge =  0 Multiplicity = 1

 SCF Done:  E(RB3LYP) =  -449.949006546     A.U. after   14 cycles
 SCF Done:  E(RB3LYP) =  -449.949945858     A.U. after   13 cycles
 SCF Done:  E(RB3LYP) =  -449.956170079     A.U. after   10 cycles
 SCF Done:  E(RB3LYP) =  -449.960970297     A.U. after   12 cycles
 SCF Done:  E(RB3LYP) =  -449.961958689     A.U. after   12 cycles
 SCF Done:  E(RB3LYP) =  -449.962614325     A.U. after   12 cycles
 SCF Done:  E(RB3LYP) =  -449.964114673     A.U. after   13 cycles
 SCF Done:  E(RB3LYP) =  -449.966583507     A.U. after   13 cycles
 SCF Done:  E(RB3LYP) =  -449.967468459     A.U. after   12 cycles
 SCF Done:  E(RB3LYP) =  -449.968568117     A.U. after   12 cycles
 SCF Done:  E(RB3LYP) =  -449.981229614     A.U. after    8 cycles
 SCF Done:  E(RB3LYP) =  -449.981254066     A.U. after    9 cycles
 SCF Done:  E(RB3LYP) =  -449.981296315     A.U. after   10 cycles
 SCF Done:  E(RB3LYP) =  -449.981361532     A.U. after   11 cycles
 SCF Done:  E(RB3LYP) =  -449.981406808     A.U. after   10 cycles
 SCF Done:  E(RB3LYP) =  -449.981425692     A.U. after    9 cycles
 SCF Done:  E(RB3LYP) =  -449.981426112     A.U. after    8 cycles
 SCF Done:  E(RB3LYP) =  -449.981426303     A.U. after    8 cycles
 SCF Done:  E(RB3LYP) =  -449.981426344     A.U. after    7 cycles
 Optimization completed.
    -- Stationary point found.
 Normal termination of Gaussian 16 at Mon May 31 14:28:50 2021.

 ----------------------------------------------------------------------
 #N Geom=AllCheck Guess=TCheck SCRF=Check GenChk RB3LYP/6-31G(2df,p) Fr
 eq
 ----------------------------------------------------------------------

 Structure from the checkpoint file:  "CNCNpCNpNdNN.chk"
 -------------------
 Title Card Required
 -------------------
 Charge =  0 Multiplicity = 1

                         Standard orientation:
 ---------------------------------------------------------------------
 Center     Atomic      Atomic             Coordinates (Angstroms)
 Number     Number       Type             X           Y           Z
 ---------------------------------------------------------------------
      1          6           0       -2.848764   -1.605134   -0.282186
      2          7           0       -1.747966   -0.672026   -0.489308
      3          6           0       -1.070242   -0.320343    0.753091
      4          7           0        0.207122    0.342037    0.540733
      5          6           0        0.257100    1.553893   -0.274923
      6          7           0       -0.959696    2.330959   -0.069655
      7          7           0        1.234065   -0.548330    0.411615
      8          7           0        2.221614   -0.118077   -0.222686
      9          7           0        3.218183   -1.082892   -0.326962
     10          1           0       -3.363806   -1.778079   -1.231656
     11          1           0       -3.601707   -1.272458    0.455821
     12          1           0       -2.453571   -2.567954    0.061621
     13          1           0       -2.110228    0.189371   -0.888154
     14          1           0       -0.840096   -1.240086    1.296800
     15          1           0       -1.685664    0.319210    1.402305
     16          1           0        0.329437    1.287318   -1.340002
     17          1           0        1.185753    2.080129   -0.018742
     18          1           0       -1.015548    3.053258   -0.779158
     19          1           0       -0.928871    2.804189    0.828311
     20          1           0        4.115507   -0.616161   -0.270732
     21          1           0        3.126978   -1.790929    0.401529
 ---------------------------------------------------------------------

 SCF Done:  E(RB3LYP) =  -449.981426344     A.U. after    1 cycles

 The electronic state is 1-A.
 Alpha  occ. eigenvalues --  -14.37504 -14.37063 -14.35460 -14.34162 -14.32440
 Alpha  occ. eigenvalues --  -14.30071 -10.23433 -10.22332 -10.19318  -1.06349
 Alpha  occ. eigenvalues --   -0.95469  -0.88837  -0.88616  -0.81201  -0.69613
 Alpha  occ. eigenvalues --   -0.67327  -0.62731  -0.56343  -0.53503  -0.51311
 Alpha  occ. eigenvalues --   -0.48389  -0.47563  -0.46124  -0.44118  -0.43138
 Alpha  occ. eigenvalues --   -0.41557  -0.38840  -0.38181  -0.37802  -0.36697
 Alpha  occ. eigenvalues --   -0.35599  -0.28813  -0.26395  -0.23269  -0.21650
 Alpha  occ. eigenvalues --   -0.19703
 Alpha virt. eigenvalues --    0.00945   0.07041   0.09991   0.11059   0.13090
 Alpha virt. eigenvalues --    0.13987   0.14740   0.15581   0.15657   0.17550
 Alpha virt. eigenvalues --    0.18270   0.18517   0.19062   0.20295   0.21938

 Mulliken charges:
               1
     1  C   -0.310177
     2  N   -0.281382
     3  C   -0.076436
     4  N   -0.013777
     5  C   -0.102579
     6  N   -0.528191
     7  N   -0.099162
     8  N   -0.123041
     9  N   -0.407833
    10  H    0.117247
    11  H    0.090766
    12  H    0.122112
    13  H    0.223162
    14  H    0.115946
    15  H    0.086084
    16  H    0.119775
    17  H    0.115309
    18  H    0.238281
    19  H    0.236765
    20  H    0.247901
    21  H    0.229231
 Sum of Mulliken charges =  -0.00000

 Dipole moment (field-independent basis, Debye):
    X=             -0.2923    Y=              2.1526    Z=              1.0719  Tot=              2.4224
 Quadrupole moment (field-independent basis, Debye-Ang):
   XX=            -47.8863   YY=            -47.7685   ZZ=            -55.7969
   XY=             -1.2759   XZ=              3.1179   YZ=             -2.8981

  Exact polarizability: 111.264  -8.504  80.704  -5.576  -2.170  61.534
 Approx polarizability: 148.286 -13.892 108.628 -17.128  -2.222  98.814

                      1                      2                      3
                      A                      A                      A
 Frequencies --     54.7530                91.7854               105.2758
 Red. masses --      3.3884                 2.3092                 2.8590
 Frc consts  --      0.0060                 0.0115                 0.0187
 IR Inten    --      2.8095                 0.5854                 0.4257

                      4                      5                      6
                      A                      A                      A
 Frequencies --    125.0962               187.7145               220.6603
 Red. masses --      2.5332                 2.9713                 1.4754
 Frc consts  --      0.0234                 0.0617                 0.0423
 IR Inten    --     10.2221                 9.2010                 5.9282

                      7                      8                      9
                      A                      A                      A
 Frequencies --    225.3144               268.4632               304.4598
 Red. masses --      1.7469                 1.2505                 2.7130
 Frc consts  --      0.0523                 0.0531                 0.1482
 IR Inten    --     12.7659                33.1228                 7.9339

                     10                     11                     12
                      A                      A                      A
 Frequencies --    312.0524               367.9130               386.5635
 Red. masses --      2.5735                 3.0158                 1.7141
 Frc consts  --      0.1476                 0.2405                 0.1509
 IR Inten    --      5.7071                 7.3551                56.9211

                     13                     14                     15
                      A                      A                      A
 Frequencies --    442.3312               494.9898               542.9762
 Red. masses --      3.8220                 4.5120                 3.8269
 Frc consts  --      0.4406                 0.6513                 0.6647
 IR Inten    --      4.8372                 7.5595                16.0287

                     16                     17                     18
                      A                      A                      A
 Frequencies --    706.5977               821.4432               835.2994
 Red. masses --      4.5084                 1.6360                 1.6814
 Frc consts  --      1.3262                 0.6504                 0.6912
 IR Inten    --     83.9679               349.7585                28.3216

                     19                     20                     21
                      A                      A                      A
 Frequencies --    848.9251               881.9102               973.7681
 Red. masses --      1.6878                 1.4715                 2.1837
 Frc consts  --      0.7167                 0.6743                 1.2200
 IR Inten    --     59.2315                57.6655                 8.4065

                     22                     23                     24
                      A                      A                      A
 Frequencies --   1012.9516              1025.5675              1092.7838
 Red. masses --      1.4708                 1.5635                 2.8653
 Frc consts  --      0.8891                 0.9689                 2.0160
 IR Inten    --      7.4097                 2.8230                22.0324

                     25                     26                     27
                      A                      A                      A
 Frequencies --   1120.5355              1129.2107              1138.5011
 Red. masses --      3.0558                 1.7699                 2.9980
 Frc consts  --      2.2606                 1.3297                 2.2896
 IR Inten    --     81.2075                68.7019                22.0305

                     28                     29                     30
                      A                      A                      A
 Frequencies --   1175.2998              1219.5615              1243.8765
 Red. masses --      1.8430                 1.3959                 2.3544
 Frc consts  --      1.5000                 1.2232                 2.1463
 IR Inten    --     26.1150                 7.8553               101.6083

                     31                     32                     33
                      A                      A                      A
 Frequencies --   1282.8372              1325.7546              1353.2350
 Red. masses --      1.8655                 1.3285                 1.6714
 Frc consts  --      1.8088                 1.3758                 1.8033
 IR Inten    --      8.1820                 4.9618                17.9910

                     34                     35                     36
                      A                      A                      A
 Frequencies --   1373.3344              1405.1377              1436.9329
 Red. masses --      1.7025                 1.2012                 1.3488
 Frc consts  --      1.8918                 1.3974                 1.6409
 IR Inten    --     16.7184                18.4674                52.5874

                     37                     38                     39
                      A                      A                      A
 Frequencies --   1459.3803              1478.4767              1488.1993
 Red. masses --      1.1879                 1.1672                 1.0824
 Frc consts  --      1.4906                 1.5033                 1.4123
 IR Inten    --      3.2818                 7.3622                29.8796

                     40                     41                     42
                      A                      A                      A
 Frequencies --   1498.2785              1516.7992              1520.5664
 Red. masses --      1.1041                 1.0552                 1.0759
 Frc consts  --      1.4603                 1.4304                 1.4656
 IR Inten    --     12.1381                14.6361                 3.3575

                     43                     44                     45
                      A                      A                      A
 Frequencies --   1585.8832              1631.7776              1653.6024
 Red. masses --      5.6044                 1.1696                 1.0933
 Frc consts  --      8.3046                 1.8349                 1.7614
 IR Inten    --      5.6542                24.2852                26.3708

                     46                     47                     48
                      A                      A                      A
 Frequencies --   2935.6771              2991.3696              2995.3440
 Red. masses --      1.0602                 1.0697                 1.0581
 Frc consts  --      5.3834                 5.6397                 5.5933
 IR Inten    --    100.8857                85.1289                23.6142

                     49                     50                     51
                      A                      A                      A
 Frequencies --   3026.5594              3052.7275              3098.3367
 Red. masses --      1.1040                 1.0730                 1.0932
 Frc consts  --      5.9581                 5.8912                 6.1834
 IR Inten    --     37.5099                35.1688                 9.0002

                     52                     53                     54
                      A                      A                      A
 Frequencies --   3101.6454              3439.6063              3504.1581
 Red. masses --      1.0995                 1.0498                 1.0503
 Frc consts  --      6.2322                 7.3176                 7.5983
 IR Inten    --     33.4405                 2.4374                 0.8245

                     55                     56                     57
                      A                      A                      A
 Frequencies --   3508.8450              3586.2130              3593.8546
 Red. masses --      1.0732                 1.0919                 1.0924
 Frc consts  --      7.7847                 8.2738                 8.3127
 IR Inten    --      4.9069                 3.1752                 8.8115

 - Thermochemistry -
 -------------------
 Temperature   298.150 Kelvin.  Pressure   1.00000 Atm.
 Atom     1 has atomic number  6 and mass  12.00000

 Molecular mass:   132.11234 amu.
 Principal axes and moments of inertia in atomic units:
                           1         2         3
     Eigenvalues --   843.808141795.037332422.56885
           X            0.99975   0.02241   0.00090
           Y           -0.02240   0.99967  -0.01267
           Z           -0.00118   0.01265   0.99992
 This molecule is an asymmetric top.
 Rotational symmetry number  1.
 Warning -- assumption of classical behavior for rotation
           may cause significant error
 Rotational temperatures (Kelvin)      0.10265     0.04825     0.03575
 Rotational constants (GHZ):           2.13881     1.00541     0.74497
 Zero-point vibrational energy     479709.2 (Joules/Mol)
                                  114.65325 (Kcal/Mol)
 Warning -- explicit consideration of  15 degrees of freedom as
           vibrations may cause significant error
 Vibrational temperatures:     78.78   132.06   151.47   179.99   270.08
          (Kelvin)            317.48   324.18   386.26   438.05   448.97
                              529.34   556.18   636.42   712.18   781.22
                             1016.64  1181.87  1201.81  1221.41  1268.87
                             1401.04  1457.41  1475.56  1572.27  1612.20
                             1624.68  1638.05  1690.99  1754.68  1789.66
                             1845.72  1907.47  1947.00  1975.92  2021.68
                             2067.43  2099.72  2127.20  2141.19  2155.69
                             2182.34  2187.76  2281.73  2347.76  2379.17
                             4223.78  4303.91  4309.63  4354.54  4392.19
                             4457.82  4462.58  4948.83  5041.70  5048.45
                             5159.76  5170.76

 Zero-point correction=                           0.182712 (Hartree/Particle)
 Thermal correction to Energy=                    0.193518
 Thermal correction to Enthalpy=                  0.194462
 Thermal correction to Gibbs Free Energy=         0.146318
 Sum of electronic and zero-point Energies=           -449.798715
 Sum of electronic and thermal Energies=              -449.787909
 Sum of electronic and thermal Enthalpies=            -449.786965
 Sum of electronic and thermal Free Energies=         -449.835108

                     E (Thermal)             CV                S
                      KCal/Mol        Cal/Mol-Kelvin    Cal/Mol-Kelvin
 Total                  121.434             38.341            101.326
 Electronic               0.000              0.000              0.000
 Translational            0.889              2.981             40.548
 Rotational               0.889              2.981             29.685
 Vibrational            119.657             32.379             31.093
 Vibration     1          0.596              1.976              4.638
 Vibration     2          0.602              1.955              3.622
 Vibration     3          0.605              1.945              3.354
 Vibration     4          0.610              1.928              3.020
 Vibration     5          0.632              1.857              2.250
 Vibration     6          0.647              1.810              1.954
 Vibration     7          0.650              1.802              1.916
 Vibration     8          0.673              1.731              1.606
 Vibration     9          0.695              1.665              1.392
 Vibration    10          0.700              1.651              1.351
 Vibration    11          0.741              1.538              1.088
 Vibration    12          0.755              1.499              1.013
 Vibration    13          0.802              1.378              0.819
 Vibration    14          0.851              1.261              0.671
 Vibration    15          0.898              1.155              0.559

 Optimization completed.
    -- Stationary point found.
 Normal termination of Gaussian 16 at Mon May 31 15:00:34 2021.
