 Gaussian 16, Revision A.03,
 Gaussian 16:  ES64L-G16RevA.03 25-Dec-2016

 -----------------------------
 # opt freq b3lyp/6-31g(2df,p)
 -----------------------------

 -------------------
 Title Card Required
 -------------------
 Symbolic Z-matrix:
 Charge =  0 Multiplicity = 1

 SCF Done:  E(RB3LYP) =  -474.460596366     A.U. after   12 cycles
 SCF Done:  E(RB3LYP) =  -474.470748684     A.U. after   11 cycles
 SCF Done:  E(RB3LYP) =  -474.472523874     A.U. after   11 cycles
 SCF Done:  E(RB3LYP) =  -474.473661685     A.U. after   11 cycles
 SCF Done:  E(RB3LYP) =  -474.474908637     A.U. after   11 cycles
 SCF Done:  E(RB3LYP) =  -474.478070631     A.U. after   13 cycles
 SCF Done:  E(RB3LYP) =  -474.479569732     A.U. after   11 cycles
 SCF Done:  E(RB3LYP) =  -474.479746499     A.U. after   11 cycles
 SCF Done:  E(RB3LYP) =  -474.480415260     A.U. after   11 cycles
 SCF Done:  E(RB3LYP) =  -474.480793187     A.U. after   10 cycles
 SCF Done:  E(RB3LYP) =  -474.490677846     A.U. after   10 cycles
 SCF Done:  E(RB3LYP) =  -474.490909685     A.U. after   10 cycles
 SCF Done:  E(RB3LYP) =  -474.491030890     A.U. after    9 cycles
 SCF Done:  E(RB3LYP) =  -474.491058883     A.U. after    9 cycles
 SCF Done:  E(RB3LYP) =  -474.491067640     A.U. after    8 cycles
 SCF Done:  E(RB3LYP) =  -474.491069093     A.U. after    7 cycles
 SCF Done:  E(RB3LYP) =  -474.491069437     A.U. after    7 cycles
 SCF Done:  E(RB3LYP) =  -474.491069485     A.U. after    6 cycles
 SCF Done:  E(RB3LYP) =  -474.491069501     A.U. after    6 cycles
 Optimization completed.
    -- Stationary point found.
 Normal termination of Gaussian 16 at Tue Jun  1 12:24:14 2021.

 ----------------------------------------------------------------------
 #N Geom=AllCheck Guess=TCheck SCRF=Check GenChk RB3LYP/6-31G(2df,p) Fr
 eq
 ----------------------------------------------------------------------

 Structure from the checkpoint file:  "CNCNNpCpCNCN.chk"
 -------------------
 Title Card Required
 -------------------
 Charge =  0 Multiplicity = 1

                         Standard orientation:
 ---------------------------------------------------------------------
 Center     Atomic      Atomic             Coordinates (Angstroms)
 Number     Number       Type             X           Y           Z
 ---------------------------------------------------------------------
      1          6           0       -3.139620   -1.880876   -0.114601
      2          7           0       -2.075608   -0.952243    0.252445
      3          6           0       -2.262595    0.378739   -0.332656
      4          7           0       -1.361537    1.399339    0.154317
      5          7           0        0.006365    1.138419   -0.164042
      6          6           0        0.623699    2.356622   -0.679608
      7          6           0        0.747903    0.589475    0.978602
      8          7           0        2.045489    0.099331    0.560690
      9          6           0        2.037268   -1.212733   -0.063193
     10          7           0        3.405997   -1.538265   -0.443342
     11          1           0       -2.917044   -2.873409    0.287971
     12          1           0       -3.302160   -1.982733   -1.202774
     13          1           0       -4.085257   -1.547035    0.328003
     14          1           0       -1.190589   -1.318886   -0.084888
     15          1           0       -3.280772    0.704723   -0.084676
     16          1           0       -2.177124    0.368293   -1.431864
     17          1           0       -1.478992    1.526082    1.159352
     18          1           0        0.093777    2.675147   -1.579345
     19          1           0        1.666336    2.142445   -0.922175
     20          1           0        0.593148    3.183581    0.051962
     21          1           0        0.105070   -0.184320    1.425670
     22          1           0        0.919597    1.364712    1.750440
     23          1           0        2.704604    0.099662    1.330579
     24          1           0        1.323420   -1.160900   -0.900925
     25          1           0        1.685739   -2.012271    0.616344
     26          1           0        3.703882   -0.914106   -1.187554
     27          1           0        3.451497   -2.484428   -0.807868
 ---------------------------------------------------------------------

 SCF Done:  E(RB3LYP) =  -474.491069501     A.U. after    1 cycles

 The electronic state is 1-A.
 Alpha  occ. eigenvalues --  -14.33655 -14.32969 -14.31097 -14.30809 -14.30702
 Alpha  occ. eigenvalues --  -10.22618 -10.22433 -10.21998 -10.19793 -10.18248
 Alpha  occ. eigenvalues --   -0.97441  -0.91910  -0.89068  -0.85129  -0.79280
 Alpha  occ. eigenvalues --   -0.68716  -0.67376  -0.64078  -0.61237  -0.58261
 Alpha  occ. eigenvalues --   -0.51492  -0.51036  -0.48806  -0.47259  -0.45907
 Alpha  occ. eigenvalues --   -0.44105  -0.43512  -0.41714  -0.41043  -0.40039
 Alpha  occ. eigenvalues --   -0.39164  -0.37940  -0.37685  -0.36825  -0.35454
 Alpha  occ. eigenvalues --   -0.34581  -0.24456  -0.24393  -0.22773  -0.21927
 Alpha  occ. eigenvalues --   -0.20942
 Alpha virt. eigenvalues --    0.07870   0.08918   0.10005   0.10347   0.12051
 Alpha virt. eigenvalues --    0.13555   0.14632   0.14963   0.15207   0.16029
 Alpha virt. eigenvalues --    0.16442   0.17857   0.18206   0.18787   0.18946

 Mulliken charges:
               1
     1  C   -0.308590
     2  N   -0.287975
     3  C   -0.079652
     4  N   -0.275420
     5  N   -0.067654
     6  C   -0.286717
     7  C   -0.127176
     8  N   -0.267894
     9  C   -0.089919
    10  N   -0.513706
    11  H    0.116758
    12  H    0.094310
    13  H    0.120377
    14  H    0.223594
    15  H    0.097673
    16  H    0.089666
    17  H    0.209049
    18  H    0.115451
    19  H    0.124202
    20  H    0.084719
    21  H    0.101518
    22  H    0.073837
    23  H    0.222438
    24  H    0.097508
    25  H    0.078825
    26  H    0.228978
    27  H    0.225800
 Sum of Mulliken charges =  -0.00000

 Dipole moment (field-independent basis, Debye):
    X=             -0.0743    Y=             -1.2073    Z=             -0.2429  Tot=              1.2338
 Quadrupole moment (field-independent basis, Debye-Ang):
   XX=            -64.8982   YY=            -62.0417   ZZ=            -61.1191
   XY=              0.3221   XZ=             -1.9837   YZ=              3.9795

  Exact polarizability: 110.447   2.015  99.852  -0.587   1.050  81.073
 Approx polarizability: 138.572   0.953 131.279  -0.943   1.729 122.540

                      1                      2                      3
                      A                      A                      A
 Frequencies --     41.4779                54.1895                76.4620
 Red. masses --      3.5913                 2.7629                 2.5750
 Frc consts  --      0.0036                 0.0048                 0.0089
 IR Inten    --      0.0921                 1.1940                 1.2824

                      4                      5                      6
                      A                      A                      A
 Frequencies --     97.2168               100.0682               135.2344
 Red. masses --      2.3547                 2.0751                 2.8774
 Frc consts  --      0.0131                 0.0122                 0.0310
 IR Inten    --      2.5190                 3.7580                 2.5097

                      7                      8                      9
                      A                      A                      A
 Frequencies --    212.0160               235.1931               250.5724
 Red. masses --      1.5952                 1.1070                 1.5415
 Frc consts  --      0.0422                 0.0361                 0.0570
 IR Inten    --      3.4049                 0.4478                22.9003

                     10                     11                     12
                      A                      A                      A
 Frequencies --    260.7487               284.3230               312.5390
 Red. masses --      1.6088                 2.1388                 2.2787
 Frc consts  --      0.0644                 0.1019                 0.1311
 IR Inten    --     11.1007                 9.1458                 4.3182

                     13                     14                     15
                      A                      A                      A
 Frequencies --    332.0774               375.4975               382.1967
 Red. masses --      2.3714                 2.7207                 2.8226
 Frc consts  --      0.1541                 0.2260                 0.2429
 IR Inten    --      1.1412                 1.6993                15.2033

                     16                     17                     18
                      A                      A                      A
 Frequencies --    451.8227               582.8013               615.4454
 Red. masses --      2.2710                 2.8077                 3.2717
 Frc consts  --      0.2732                 0.5619                 0.7301
 IR Inten    --      1.5561                14.7961                 7.3108

                     19                     20                     21
                      A                      A                      A
 Frequencies --    707.4527               759.5513               830.5160
 Red. masses --      1.9609                 1.5142                 1.2949
 Frc consts  --      0.5782                 0.5147                 0.5262
 IR Inten    --     29.3081               108.3773                85.2666

                     22                     23                     24
                      A                      A                      A
 Frequencies --    859.8623               867.7033               931.6156
 Red. masses --      1.7176                 1.6493                 1.8271
 Frc consts  --      0.7482                 0.7316                 0.9343
 IR Inten    --    135.6558                62.0894                 7.8116

                     25                     26                     27
                      A                      A                      A
 Frequencies --    968.2250               984.9124              1027.2580
 Red. masses --      2.4386                 1.6736                 1.5244
 Frc consts  --      1.3469                 0.9565                 0.9478
 IR Inten    --     21.7433                13.7027                 1.1776

                     28                     29                     30
                      A                      A                      A
 Frequencies --   1071.5826              1087.3517              1105.9349
 Red. masses --      1.7020                 2.4933                 2.8511
 Frc consts  --      1.1515                 1.7369                 2.0546
 IR Inten    --     34.6017                 3.5945                 9.7693

                     31                     32                     33
                      A                      A                      A
 Frequencies --   1127.3028              1145.9241              1151.4970
 Red. masses --      1.6835                 2.9165                 1.7771
 Frc consts  --      1.2605                 2.2564                 1.3883
 IR Inten    --     25.7637                94.8626                20.5596

                     34                     35                     36
                      A                      A                      A
 Frequencies --   1173.1781              1179.4889              1203.6338
 Red. masses --      2.6373                 1.7672                 1.6074
 Frc consts  --      2.1387                 1.4485                 1.3721
 IR Inten    --     46.0006                 4.3962                37.1071

                     37                     38                     39
                      A                      A                      A
 Frequencies --   1226.0668              1232.3599              1240.6574
 Red. masses --      1.7374                 1.8813                 2.4043
 Frc consts  --      1.5388                 1.6834                 2.1805
 IR Inten    --      4.9769                 2.1331                 9.5849

                     40                     41                     42
                      A                      A                      A
 Frequencies --   1308.5303              1325.6472              1345.5712
 Red. masses --      1.2845                 1.1868                 1.3151
 Frc consts  --      1.2958                 1.2288                 1.4029
 IR Inten    --      4.3076                 7.2029                 5.0127

                     43                     44                     45
                      A                      A                      A
 Frequencies --   1397.8947              1417.5272              1423.9996
 Red. masses --      1.2516                 1.2223                 1.2653
 Frc consts  --      1.4410                 1.4471                 1.5117
 IR Inten    --     21.7418                31.1747                11.7651

                     46                     47                     48
                      A                      A                      A
 Frequencies --   1438.7666              1456.6883              1473.1515
 Red. masses --      1.2195                 1.1643                 1.2103
 Frc consts  --      1.4873                 1.4556                 1.5475
 IR Inten    --     24.1182                 3.6555                30.5529

                     49                     50                     51
                      A                      A                      A
 Frequencies --   1484.1957              1488.3589              1489.1549
 Red. masses --      1.1036                 1.0952                 1.1304
 Frc consts  --      1.4324                 1.4294                 1.4770
 IR Inten    --      8.1841                11.5954                25.2547

                     52                     53                     54
                      A                      A                      A
 Frequencies --   1495.6294              1500.7575              1514.9942
 Red. masses --      1.1178                 1.1032                 1.0622
 Frc consts  --      1.4732                 1.4639                 1.4364
 IR Inten    --      2.1848                 4.2439                 5.3240

                     55                     56                     57
                      A                      A                      A
 Frequencies --   1519.3739              1530.5582              1541.0569
 Red. masses --      1.0923                 1.1750                 1.0902
 Frc consts  --      1.4857                 1.6218                 1.5254
 IR Inten    --      3.2834                 6.7718                 1.3089

                     58                     59                     60
                      A                      A                      A
 Frequencies --   1642.7860              2912.4193              2918.5212
 Red. masses --      1.0997                 1.0677                 1.0692
 Frc consts  --      1.7486                 5.3359                 5.3658
 IR Inten    --     31.4366                76.8544                83.4113

                     61                     62                     63
                      A                      A                      A
 Frequencies --   2942.7600              2951.7048              2967.7095
 Red. masses --      1.0590                 1.0585                 1.0680
 Frc consts  --      5.4033                 5.4336                 5.5418
 IR Inten    --     87.3906                83.4116                69.9521

                     64                     65                     66
                      A                      A                      A
 Frequencies --   2974.7264              2995.9399              3046.0414
 Red. masses --      1.0894                 1.0917                 1.0935
 Frc consts  --      5.6796                 5.7734                 5.9776
 IR Inten    --     66.8371                36.8907                33.9513

                     67                     68                     69
                      A                      A                      A
 Frequencies --   3052.6362              3092.5957              3100.6833
 Red. masses --      1.0742                 1.0722                 1.1008
 Frc consts  --      5.8977                 6.0416                 6.2356
 IR Inten    --     44.3193                26.2421                27.8730

                     70                     71                     72
                      A                      A                      A
 Frequencies --   3142.6762              3439.7791              3494.0267
 Red. masses --      1.1039                 1.0734                 1.0492
 Frc consts  --      6.4235                 7.4832                 7.5471
 IR Inten    --     14.7082                 6.0843                 0.2622

                     73                     74                     75
                      A                      A                      A
 Frequencies --   3511.6239              3546.3310              3580.0021
 Red. masses --      1.0733                 1.0742                 1.0923
 Frc consts  --      7.7981                 7.9599                 8.2485
 IR Inten    --      0.5118                 1.9295                 0.3555

 - Thermochemistry -
 -------------------
 Temperature   298.150 Kelvin.  Pressure   1.00000 Atm.
 Atom     1 has atomic number  6 and mass  12.00000

 Molecular mass:   147.14840 amu.
 Principal axes and moments of inertia in atomic units:
                           1         2         3
     Eigenvalues --  1163.645272470.557363305.91515
           X            0.99977   0.02122   0.00001
           Y           -0.02122   0.99976   0.00629
           Z            0.00012  -0.00629   0.99998
 This molecule is an asymmetric top.
 Rotational symmetry number  1.
 Warning -- assumption of classical behavior for rotation
           may cause significant error
 Rotational temperatures (Kelvin)      0.07443     0.03506     0.02620
 Rotational constants (GHZ):           1.55094     0.73050     0.54591
 Zero-point vibrational energy     646861.4 (Joules/Mol)
                                  154.60358 (Kcal/Mol)
 Warning -- explicit consideration of  18 degrees of freedom as
           vibrations may cause significant error
 Vibrational temperatures:     59.68    77.97   110.01   139.87   143.98
          (Kelvin)            194.57   305.04   338.39   360.52   375.16
                              409.08   449.67   477.79   540.26   549.90
                              650.07   838.52   885.49  1017.87  1092.82
                             1194.93  1237.15  1248.43  1340.39  1393.06
                             1417.07  1478.00  1541.77  1564.46  1591.19
                             1621.94  1648.73  1656.75  1687.94  1697.02
                             1731.76  1764.04  1773.09  1785.03  1882.68
                             1907.31  1935.98  2011.26  2039.51  2048.82
                             2070.06  2095.85  2119.54  2135.43  2141.42
                             2142.56  2151.88  2159.26  2179.74  2186.04
                             2202.13  2217.24  2363.60  4190.32  4199.10
                             4233.98  4246.84  4269.87  4279.97  4310.49
                             4382.57  4392.06  4449.56  4461.19  4521.61
                             4949.07  5027.13  5052.44  5102.38  5150.82

 Zero-point correction=                           0.246376 (Hartree/Particle)
 Thermal correction to Energy=                    0.259201
 Thermal correction to Enthalpy=                  0.260145
 Thermal correction to Gibbs Free Energy=         0.206633
 Sum of electronic and zero-point Energies=           -474.244693
 Sum of electronic and thermal Energies=              -474.231869
 Sum of electronic and thermal Enthalpies=            -474.230924
 Sum of electronic and thermal Free Energies=         -474.284436

                     E (Thermal)             CV                S
                      KCal/Mol        Cal/Mol-Kelvin    Cal/Mol-Kelvin
 Total                  162.651             45.576            112.625
 Electronic               0.000              0.000              0.000
 Translational            0.889              2.981             40.869
 Rotational               0.889              2.981             30.631
 Vibrational            160.874             39.615             41.125
 Vibration     1          0.594              1.981              5.187
 Vibration     2          0.596              1.976              4.658
 Vibration     3          0.599              1.965              3.980
 Vibration     4          0.603              1.951              3.509
 Vibration     5          0.604              1.949              3.453
 Vibration     6          0.613              1.918              2.870
 Vibration     7          0.643              1.823              2.026
 Vibration     8          0.655              1.787              1.839
 Vibration     9          0.663              1.762              1.727
 Vibration    10          0.669              1.745              1.657
 Vibration    11          0.683              1.703              1.508
 Vibration    12          0.701              1.650              1.349
 Vibration    13          0.714              1.611              1.250
 Vibration    14          0.746              1.522              1.057
 Vibration    15          0.752              1.508              1.030
 Vibration    16          0.810              1.357              0.790
 Vibration    17          0.940              1.069              0.480
 Vibration    18          0.975              0.999              0.424

 Optimization completed.
    -- Stationary point found.
 Normal termination of Gaussian 16 at Tue Jun  1 13:12:21 2021.
