 Gaussian 16, Revision A.03,
 Gaussian 16:  ES64L-G16RevA.03 25-Dec-2016

 -----------------------------
 # opt freq b3lyp/6-31g(2df,p)
 -----------------------------

 -------------------
 Title Card Required
 -------------------
 Symbolic Z-matrix:
 Charge =  0 Multiplicity = 1

 SCF Done:  E(RB3LYP) =  -401.907790315     A.U. after   13 cycles
 SCF Done:  E(RB3LYP) =  -401.913716229     A.U. after   11 cycles
 SCF Done:  E(RB3LYP) =  -401.916338088     A.U. after   12 cycles
 SCF Done:  E(RB3LYP) =  -401.918415130     A.U. after   12 cycles
 SCF Done:  E(RB3LYP) =  -401.918853463     A.U. after   12 cycles
 SCF Done:  E(RB3LYP) =  -401.918961186     A.U. after   11 cycles
 SCF Done:  E(RB3LYP) =  -401.919007319     A.U. after   10 cycles
 SCF Done:  E(RB3LYP) =  -401.919038526     A.U. after    9 cycles
 SCF Done:  E(RB3LYP) =  -401.919131351     A.U. after   11 cycles
 SCF Done:  E(RB3LYP) =  -401.919203911     A.U. after   11 cycles
 SCF Done:  E(RB3LYP) =  -401.925070108     A.U. after   10 cycles
 SCF Done:  E(RB3LYP) =  -401.925162778     A.U. after   11 cycles
 SCF Done:  E(RB3LYP) =  -401.925130376     A.U. after   11 cycles
 SCF Done:  E(RB3LYP) =  -401.925168816     A.U. after   11 cycles
 SCF Done:  E(RB3LYP) =  -401.925165846     A.U. after    9 cycles
 SCF Done:  E(RB3LYP) =  -401.925169220     A.U. after    9 cycles
 SCF Done:  E(RB3LYP) =  -401.925169259     A.U. after    7 cycles
 SCF Done:  E(RB3LYP) =  -401.925169325     A.U. after    7 cycles
 SCF Done:  E(RB3LYP) =  -401.925169319     A.U. after    6 cycles
 Optimization completed.
    -- Stationary point found.
 Normal termination of Gaussian 16 at Tue Jun  1 03:22:05 2021.

 ----------------------------------------------------------------------
 #N Geom=AllCheck Guess=TCheck SCRF=Check GenChk RB3LYP/6-31G(2df,p) Fr
 eq
 ----------------------------------------------------------------------

 Structure from the checkpoint file:  "CNCNCpCpCpCpdN.chk"
 -------------------
 Title Card Required
 -------------------
 Charge =  0 Multiplicity = 1

                         Standard orientation:
 ---------------------------------------------------------------------
 Center     Atomic      Atomic             Coordinates (Angstroms)
 Number     Number       Type             X           Y           Z
 ---------------------------------------------------------------------
      1          6           0       -3.794484   -0.295715   -0.065084
      2          7           0       -2.362420   -0.572023   -0.095104
      3          6           0       -1.577114    0.416206    0.648338
      4          7           0       -0.176578    0.072607    0.794586
      5          6           0        0.637017    0.012415   -0.427100
      6          6           0        0.644206    1.359020   -1.167113
      7          6           0        2.057470   -0.408018   -0.034288
      8          6           0        2.799221    0.485521    0.927547
      9          7           0        2.628077   -1.459470   -0.470505
     10          1           0       -4.324904   -1.035671   -0.671205
     11          1           0       -4.075352    0.709108   -0.428936
     12          1           0       -4.160234   -0.385081    0.964347
     13          1           0       -2.051609   -0.591344   -1.061536
     14          1           0       -2.010923    0.474679    1.654258
     15          1           0       -1.646141    1.430185    0.220230
     16          1           0       -0.123329   -0.830126    1.257935
     17          1           0        0.276864   -0.758540   -1.133081
     18          1           0        0.900772    2.176454   -0.488059
     19          1           0       -0.331916    1.579112   -1.608631
     20          1           0        1.374437    1.333707   -1.981098
     21          1           0        3.033759    1.447998    0.457948
     22          1           0        3.731615    0.007510    1.229267
     23          1           0        2.179286    0.702430    1.801707
     24          1           0        2.006229   -1.964792   -1.109786
 ---------------------------------------------------------------------

 SCF Done:  E(RB3LYP) =  -401.925169319     A.U. after    1 cycles

 The electronic state is 1-A.
 Alpha  occ. eigenvalues --  -14.31915 -14.31500 -14.30353 -10.23030 -10.22503
 Alpha  occ. eigenvalues --  -10.22183 -10.20387 -10.18481 -10.17232  -0.93439
 Alpha  occ. eigenvalues --   -0.89943  -0.86742  -0.75717  -0.71607  -0.68608
 Alpha  occ. eigenvalues --   -0.64567  -0.59799  -0.53973  -0.51779  -0.48788
 Alpha  occ. eigenvalues --   -0.47595  -0.45021  -0.44156  -0.41756  -0.40097
 Alpha  occ. eigenvalues --   -0.39570  -0.39226  -0.38736  -0.37516  -0.36959
 Alpha  occ. eigenvalues --   -0.35783  -0.35348  -0.29391  -0.24988  -0.23650
 Alpha  occ. eigenvalues --   -0.22725
 Alpha virt. eigenvalues --    0.00861   0.06404   0.09793   0.10289   0.11353
 Alpha virt. eigenvalues --    0.12378   0.13719   0.15022   0.16047   0.16807
 Alpha virt. eigenvalues --    0.17118   0.17562   0.18004   0.18168   0.20080

 Mulliken charges:
               1
     1  C   -0.309238
     2  N   -0.289598
     3  C   -0.113715
     4  N   -0.293910
     5  C   -0.027881
     6  C   -0.397889
     7  C    0.324923
     8  C   -0.437647
     9  N   -0.471877
    10  H    0.120226
    11  H    0.094705
    12  H    0.123215
    13  H    0.216461
    14  H    0.105946
    15  H    0.091848
    16  H    0.222485
    17  H    0.053531
    18  H    0.132426
    19  H    0.117877
    20  H    0.125396
    21  H    0.128409
    22  H    0.135617
    23  H    0.141369
    24  H    0.207321
 Sum of Mulliken charges =  -0.00000

 Dipole moment (field-independent basis, Debye):
    X=             -2.3899    Y=              1.3881    Z=             -0.8441  Tot=              2.8898
 Quadrupole moment (field-independent basis, Debye-Ang):
   XX=            -62.9449   YY=            -59.4790   ZZ=            -54.6864
   XY=              4.2727   XZ=              1.4756   YZ=             -0.0217

  Exact polarizability: 105.218  -3.131  82.621   0.810   5.002  77.381
 Approx polarizability: 125.960  -7.998 127.432  -1.261  10.648 116.389

                      1                      2                      3
                      A                      A                      A
 Frequencies --     40.3700                45.8965                82.4119
 Red. masses --      3.4601                 2.7779                 2.2342
 Frc consts  --      0.0033                 0.0034                 0.0089
 IR Inten    --      0.2694                 1.0227                 2.4577

                      4                      5                      6
                      A                      A                      A
 Frequencies --     91.8922               158.2174               189.2638
 Red. masses --      2.7840                 1.0884                 2.7512
 Frc consts  --      0.0139                 0.0161                 0.0581
 IR Inten    --      1.9301                 0.0060                 1.1790

                      7                      8                      9
                      A                      A                      A
 Frequencies --    221.5218               242.5988               267.7043
 Red. masses --      1.5230                 1.1256                 2.4607
 Frc consts  --      0.0440                 0.0390                 0.1039
 IR Inten    --      1.4513                 0.5006                 1.6255

                     10                     11                     12
                      A                      A                      A
 Frequencies --    299.0721               315.1620               378.6160
 Red. masses --      2.6595                 1.7276                 2.7477
 Frc consts  --      0.1402                 0.1011                 0.2321
 IR Inten    --      1.7345                 3.1340                 2.3840

                     13                     14                     15
                      A                      A                      A
 Frequencies --    481.3324               533.8253               554.9673
 Red. masses --      2.9608                 2.8704                 2.5043
 Frc consts  --      0.4042                 0.4819                 0.4544
 IR Inten    --      3.7415                25.9837                 3.5493

                     16                     17                     18
                      A                      A                      A
 Frequencies --    593.2798               765.0828               773.9365
 Red. masses --      2.4567                 2.0202                 1.7609
 Frc consts  --      0.5095                 0.6967                 0.6214
 IR Inten    --      4.1832                26.9963                70.0052

                     19                     20                     21
                      A                      A                      A
 Frequencies --    804.9426               885.3174               915.7777
 Red. masses --      1.3212                 2.0811                 1.4360
 Frc consts  --      0.5044                 0.9610                 0.7096
 IR Inten    --     77.1292                 4.2381                35.8783

                     22                     23                     24
                      A                      A                      A
 Frequencies --    957.7314               970.5709              1008.4348
 Red. masses --      1.6576                 1.9463                 1.6366
 Frc consts  --      0.8958                 1.0802                 0.9806
 IR Inten    --     12.3580                27.1020                 2.8555

                     25                     26                     27
                      A                      A                      A
 Frequencies --   1069.9995              1081.4016              1086.2096
 Red. masses --      1.6117                 1.5406                 1.7510
 Frc consts  --      1.0872                 1.0615                 1.2172
 IR Inten    --      7.0794                11.6395                10.4213

                     28                     29                     30
                      A                      A                      A
 Frequencies --   1113.1214              1124.5074              1143.2408
 Red. masses --      2.7320                 1.9528                 1.7655
 Frc consts  --      1.9944                 1.4549                 1.3595
 IR Inten    --     37.9328                 0.7721                34.4326

                     31                     32                     33
                      A                      A                      A
 Frequencies --   1162.5873              1191.8510              1224.0643
 Red. masses --      1.9278                 2.4589                 1.7389
 Frc consts  --      1.5352                 2.0579                 1.5351
 IR Inten    --     72.9937                55.5047                 2.1440

                     34                     35                     36
                      A                      A                      A
 Frequencies --   1302.8264              1344.0378              1356.5104
 Red. masses --      1.1816                 1.4802                 1.4343
 Frc consts  --      1.1816                 1.5754                 1.5550
 IR Inten    --      8.0388                 5.3177                44.0601

                     37                     38                     39
                      A                      A                      A
 Frequencies --   1366.6028              1397.4918              1401.3401
 Red. masses --      1.2772                 1.2614                 1.2485
 Frc consts  --      1.4054                 1.4515                 1.4445
 IR Inten    --     28.4721                15.9184                34.8909

                     40                     41                     42
                      A                      A                      A
 Frequencies --   1417.7978              1458.3569              1474.0769
 Red. masses --      1.5443                 1.1656                 1.0524
 Frc consts  --      1.8290                 1.4606                 1.3474
 IR Inten    --     38.3056                 1.8675                 5.1724

                     43                     44                     45
                      A                      A                      A
 Frequencies --   1477.3181              1480.0368              1489.3777
 Red. masses --      1.0567                 1.1874                 1.0566
 Frc consts  --      1.3588                 1.5325                 1.3809
 IR Inten    --      6.1652                25.6530                 8.6286

                     46                     47                     48
                      A                      A                      A
 Frequencies --   1491.7074              1501.2376              1509.3722
 Red. masses --      1.0601                 1.0619                 1.0967
 Frc consts  --      1.3898                 1.4100                 1.4721
 IR Inten    --      4.3242                 6.4265                 3.5582

                     49                     50                     51
                      A                      A                      A
 Frequencies --   1518.3460              1525.2637              1725.5190
 Red. masses --      1.0639                 1.1717                 8.2199
 Frc consts  --      1.4451                 1.6061                14.4196
 IR Inten    --     12.8545                24.6028                56.9429

                     52                     53                     54
                      A                      A                      A
 Frequencies --   2914.8564              2942.7256              2966.9706
 Red. masses --      1.0816                 1.0593                 1.0696
 Frc consts  --      5.4143                 5.4047                 5.5475
 IR Inten    --     57.1888                80.4222                68.6574

                     55                     56                     57
                      A                      A                      A
 Frequencies --   3040.5259              3042.1710              3045.0275
 Red. masses --      1.0400                 1.0902                 1.0365
 Frc consts  --      5.6648                 5.9444                 5.6622
 IR Inten    --      5.0284                33.1874                22.4493

                     58                     59                     60
                      A                      A                      A
 Frequencies --   3054.0398              3103.4839              3103.5101
 Red. masses --      1.0742                 1.0930                 1.1003
 Frc consts  --      5.9033                 6.2028                 6.2443
 IR Inten    --     39.7285                 7.9099                29.8563

                     61                     62                     63
                      A                      A                      A
 Frequencies --   3111.3755              3125.4486              3153.7577
 Red. masses --      1.1010                 1.1023                 1.1027
 Frc consts  --      6.2796                 6.3442                 6.4618
 IR Inten    --     26.4961                14.8838                 9.1127

                     64                     65                     66
                      A                      A                      A
 Frequencies --   3403.1047              3507.1666              3510.5415
 Red. masses --      1.0734                 1.0731                 1.0735
 Frc consts  --      7.3242                 7.7769                 7.7945
 IR Inten    --      7.2752                 0.7464                 0.5295

 - Thermochemistry -
 -------------------
 Temperature   298.150 Kelvin.  Pressure   1.00000 Atm.
 Atom     1 has atomic number  6 and mass  12.00000

 Molecular mass:   129.12660 amu.
 Principal axes and moments of inertia in atomic units:
                           1         2         3
     Eigenvalues --   546.699212496.510132561.49540
           X            0.99992   0.01129   0.00626
           Y           -0.01110   0.99948  -0.03029
           Z           -0.00660   0.03022   0.99952
 This molecule is an asymmetric top.
 Rotational symmetry number  1.
 Warning -- assumption of classical behavior for rotation
           may cause significant error
 Rotational temperatures (Kelvin)      0.15843     0.03469     0.03381
 Rotational constants (GHZ):           3.30116     0.72291     0.70457
 Zero-point vibrational energy     568446.5 (Joules/Mol)
                                  135.86197 (Kcal/Mol)
 Warning -- explicit consideration of  16 degrees of freedom as
           vibrations may cause significant error
 Vibrational temperatures:     58.08    66.03   118.57   132.21   227.64
          (Kelvin)            272.31   318.72   349.05   385.17   430.30
                              453.45   544.74   692.53   768.06   798.47
                              853.60  1100.78  1113.52  1158.13  1273.77
                             1317.60  1377.96  1396.43  1450.91  1539.49
                             1555.90  1562.81  1601.53  1617.92  1644.87
                             1672.70  1714.81  1761.16  1874.48  1933.77
                             1951.72  1966.24  2010.68  2016.22  2039.89
                             2098.25  2120.87  2125.53  2129.44  2142.88
                             2146.23  2159.95  2171.65  2184.56  2194.51
                             2482.64  4193.83  4233.93  4268.81  4374.64
                             4377.01  4381.12  4394.08  4465.22  4465.26
                             4476.58  4496.82  4537.55  4896.31  5046.03
                             5050.89

 Zero-point correction=                           0.216510 (Hartree/Particle)
 Thermal correction to Energy=                    0.227990
 Thermal correction to Enthalpy=                  0.228934
 Thermal correction to Gibbs Free Energy=         0.178544
 Sum of electronic and zero-point Energies=           -401.708659
 Sum of electronic and thermal Energies=              -401.697179
 Sum of electronic and thermal Enthalpies=            -401.696235
 Sum of electronic and thermal Free Energies=         -401.746625

                     E (Thermal)             CV                S
                      KCal/Mol        Cal/Mol-Kelvin    Cal/Mol-Kelvin
 Total                  143.066             40.563            106.054
 Electronic               0.000              0.000              0.000
 Translational            0.889              2.981             40.480
 Rotational               0.889              2.981             29.637
 Vibrational            141.288             34.601             35.937
 Vibration     1          0.594              1.981              5.241
 Vibration     2          0.595              1.979              4.987
 Vibration     3          0.600              1.961              3.833
 Vibration     4          0.602              1.955              3.619
 Vibration     5          0.621              1.893              2.571
 Vibration     6          0.633              1.855              2.235
 Vibration     7          0.648              1.808              1.947
 Vibration     8          0.659              1.775              1.784
 Vibration     9          0.673              1.732              1.611
 Vibration    10          0.692              1.675              1.422
 Vibration    11          0.703              1.645              1.335
 Vibration    12          0.749              1.516              1.045
 Vibration    13          0.838              1.291              0.706
 Vibration    14          0.889              1.175              0.579
 Vibration    15          0.910              1.129              0.534
 Vibration    16          0.951              1.046              0.461

 Optimization completed.
    -- Stationary point found.
 Normal termination of Gaussian 16 at Tue Jun  1 03:55:14 2021.
