 Gaussian 16, Revision A.03,
 Gaussian 16:  ES64L-G16RevA.03 25-Dec-2016

 -----------------------------
 # opt freq b3lyp/6-31g(2df,p)
 -----------------------------

 -------------------
 Title Card Required
 -------------------
 Symbolic Z-matrix:
 Charge =  0 Multiplicity = 1

 SCF Done:  E(RB3LYP) =  -320.894623343     A.U. after   14 cycles
 SCF Done:  E(RB3LYP) =  -320.897464227     A.U. after   15 cycles
 SCF Done:  E(RB3LYP) =  -320.898170672     A.U. after   12 cycles
 SCF Done:  E(RB3LYP) =  -320.898372019     A.U. after   10 cycles
 SCF Done:  E(RB3LYP) =  -320.898372773     A.U. after    9 cycles
 SCF Done:  E(RB3LYP) =  -320.898376509     A.U. after    8 cycles
 SCF Done:  E(RB3LYP) =  -320.898376677     A.U. after    7 cycles
 Optimization completed.
    -- Stationary point found.
 Normal termination of Gaussian 16 at Tue Jun  1 07:49:23 2021.

 ----------------------------------------------------------------------
 #N Geom=AllCheck Guess=TCheck SCRF=Check GenChk RB3LYP/6-31G(2df,p) Fr
 eq
 ----------------------------------------------------------------------

 Structure from the checkpoint file:  "CNCpCpdNCtN.chk"
 -------------------
 Title Card Required
 -------------------
 Charge =  0 Multiplicity = 1

                         Standard orientation:
 ---------------------------------------------------------------------
 Center     Atomic      Atomic             Coordinates (Angstroms)
 Number     Number       Type             X           Y           Z
 ---------------------------------------------------------------------
      1          6           0        2.743198   -0.040853   -0.000185
      2          7           0        1.436665   -0.670079    0.000007
      3          6           0        0.230508   -0.066967    0.000220
      4          6           0        0.153662    1.437027    0.000094
      5          7           0       -0.815609   -0.844679    0.000169
      6          6           0       -2.031187   -0.318470    0.000078
      7          7           0       -3.132941    0.062086   -0.000295
      8          1           0        3.497597   -0.829119   -0.000292
      9          1           0        2.905070    0.576756    0.890025
     10          1           0        2.904822    0.576754   -0.890442
     11          1           0        1.390486   -1.678208    0.000016
     12          1           0        1.128663    1.922497   -0.000537
     13          1           0       -0.409731    1.767883    0.877504
     14          1           0       -0.410804    1.767719   -0.876683
 ---------------------------------------------------------------------

 SCF Done:  E(RB3LYP) =  -320.898376677     A.U. after    1 cycles

 The electronic state is 1-A.
 Alpha  occ. eigenvalues --  -14.38545 -14.33504 -14.28641 -10.29650 -10.25176
 Alpha  occ. eigenvalues --  -10.21256 -10.21096  -0.99875  -0.92436  -0.85205
 Alpha  occ. eigenvalues --   -0.76446  -0.74011  -0.62660  -0.58171  -0.50789
 Alpha  occ. eigenvalues --   -0.48635  -0.46788  -0.44681  -0.42672  -0.42206
 Alpha  occ. eigenvalues --   -0.38347  -0.35287  -0.32600  -0.32498  -0.25482
 Alpha  occ. eigenvalues --   -0.23453
 Alpha virt. eigenvalues --   -0.02243   0.05514   0.08047   0.09507   0.11403
 Alpha virt. eigenvalues --    0.13361   0.13645   0.14081   0.15077   0.16176
 Alpha virt. eigenvalues --    0.16293   0.20019   0.23623   0.31847   0.33417

 Mulliken charges:
               1
     1  C   -0.331615
     2  N   -0.295565
     3  C    0.397225
     4  C   -0.490235
     5  N   -0.382130
     6  C    0.302609
     7  N   -0.390530
     8  H    0.147340
     9  H    0.146642
    10  H    0.146646
    11  H    0.264714
    12  H    0.131132
    13  H    0.176867
    14  H    0.176901
 Sum of Mulliken charges =   0.00000

 Dipole moment (field-independent basis, Debye):
    X=              7.8036    Y=              0.7523    Z=              0.0006  Tot=              7.8398
 Quadrupole moment (field-independent basis, Debye-Ang):
   XX=            -52.2913   YY=            -38.6420   ZZ=            -41.1750
   XY=             -1.5370   XZ=             -0.0025   YZ=              0.0005

  Exact polarizability: 104.483  -1.988  53.059   0.002  -0.000  38.955
 Approx polarizability: 162.397  -7.897  78.959   0.010  -0.002  58.698

 ******    1 imaginary frequencies (negative Signs) ******

                      1                      2                      3
                      A                      A                      A
 Frequencies --    -94.4439                85.1692               125.8429
 Red. masses --      1.0161                 2.7266                 1.3930
 Frc consts  --      0.0053                 0.0117                 0.0130
 IR Inten    --      0.8707                 0.0830                 0.4373

                      4                      5                      6
                      A                      A                      A
 Frequencies --    142.9596               178.1869               297.1389
 Red. masses --      5.6922                 3.5557                 2.8574
 Frc consts  --      0.0685                 0.0665                 0.1486
 IR Inten    --      3.5490                 1.2361                 1.8853

                      7                      8                      9
                      A                      A                      A
 Frequencies --    442.4897               502.7505               503.1405
 Red. masses --      4.3050                 1.4267                 4.2229
 Frc consts  --      0.4966                 0.2125                 0.6299
 IR Inten    --      2.6874                31.7007                 2.7698

                     10                     11                     12
                      A                      A                      A
 Frequencies --    581.3129               632.7845               655.7310
 Red. masses --     10.0197                 1.9529                 5.2423
 Frc consts  --      1.9949                 0.4607                 1.3281
 IR Inten    --      2.9233                56.2583                 8.0248

                     13                     14                     15
                      A                      A                      A
 Frequencies --    812.6296               991.5792              1054.4662
 Red. masses --      4.2649                 2.0698                 1.6224
 Frc consts  --      1.6594                 1.1990                 1.0628
 IR Inten    --      4.6663                 1.5150                 3.2516

                     16                     17                     18
                      A                      A                      A
 Frequencies --   1093.8828              1110.2721              1153.4324
 Red. masses --      2.6036                 1.8983                 1.2682
 Frc consts  --      1.8355                 1.3787                 0.9941
 IR Inten    --     34.1727                23.6866                 0.1090

                     19                     20                     21
                      A                      A                      A
 Frequencies --   1229.8089              1397.2846              1416.9819
 Red. masses --      2.3820                 1.2842                 1.4980
 Frc consts  --      2.1226                 1.4772                 1.7721
 IR Inten    --      8.7549                26.9940               154.9130

                     22                     23                     24
                      A                      A                      A
 Frequencies --   1471.1275              1474.1083              1479.4363
 Red. masses --      1.4222                 1.0412                 1.1102
 Frc consts  --      1.8135                 1.3330                 1.4317
 IR Inten    --      0.6427                11.6659                 1.6285

                     25                     26                     27
                      A                      A                      A
 Frequencies --   1494.8149              1513.1893              1531.5041
 Red. masses --      1.0402                 1.3084                 1.8682
 Frc consts  --      1.3695                 1.7652                 2.5817
 IR Inten    --      1.9044                 5.7383                62.2706

                     28                     29                     30
                      A                      A                      A
 Frequencies --   1674.3556              2308.4902              3028.3958
 Red. masses --      5.4205                12.6075                 1.0371
 Frc consts  --      8.9533                39.5854                 5.6040
 IR Inten    --    686.5474               204.1973                50.6802

                     31                     32                     33
                      A                      A                      A
 Frequencies --   3059.3054              3083.0825              3118.2946
 Red. masses --      1.0377                 1.1046                 1.0990
 Frc consts  --      5.7221                 6.1860                 6.2963
 IR Inten    --      2.2490                21.7410                 0.6423

                     34                     35                     36
                      A                      A                      A
 Frequencies --   3136.9245              3161.8049              3619.4781
 Red. masses --      1.0984                 1.1009                 1.0759
 Frc consts  --      6.3682                 6.4847                 8.3048
 IR Inten    --     10.2847                11.8004                47.8780

 - Thermochemistry -
 -------------------
 Temperature   298.150 Kelvin.  Pressure   1.00000 Atm.
 Atom     1 has atomic number  6 and mass  12.00000

 Molecular mass:    97.06400 amu.
 Principal axes and moments of inertia in atomic units:
                           1         2         3
     Eigenvalues --   212.852911254.239851444.60888
           X            1.00000  -0.00238  -0.00001
           Y            0.00238   1.00000   0.00001
           Z            0.00001  -0.00001   1.00000
 This molecule is an asymmetric top.
 Rotational symmetry number  1.
 Rotational temperatures (Kelvin)      0.40692     0.06906     0.05996
 Rotational constants (GHZ):           8.47882     1.43891     1.24929
    1 imaginary frequencies ignored.
 Zero-point vibrational energy     296447.5 (Joules/Mol)
                                   70.85266 (Kcal/Mol)
 Warning -- explicit consideration of   9 degrees of freedom as
           vibrations may cause significant error
 Vibrational temperatures:    122.54   181.06   205.69   256.37   427.52
          (Kelvin)            636.64   723.35   723.91   836.38   910.44
                              943.45  1169.19  1426.66  1517.14  1573.85
                             1597.43  1659.53  1769.42  2010.38  2038.72
                             2116.62  2120.91  2128.58  2150.71  2177.14
                             2203.49  2409.02  3321.40  4357.19  4401.66
                             4435.87  4486.53  4513.33  4549.13  5207.62

 Zero-point correction=                           0.112911 (Hartree/Particle)
 Thermal correction to Energy=                    0.120302
 Thermal correction to Enthalpy=                  0.121246
 Thermal correction to Gibbs Free Energy=         0.081120
 Sum of electronic and zero-point Energies=           -320.785466
 Sum of electronic and thermal Energies=              -320.778075
 Sum of electronic and thermal Enthalpies=            -320.777130
 Sum of electronic and thermal Free Energies=         -320.817257

                     E (Thermal)             CV                S
                      KCal/Mol        Cal/Mol-Kelvin    Cal/Mol-Kelvin
 Total                   75.491             25.152             84.453
 Electronic               0.000              0.000              0.000
 Translational            0.889              2.981             39.629
 Rotational               0.889              2.981             27.447
 Vibrational             73.713             19.190             17.377
 Vibration     1          0.601              1.959              3.768
 Vibration     2          0.611              1.927              3.009
 Vibration     3          0.616              1.910              2.764
 Vibration     4          0.629              1.869              2.347
 Vibration     5          0.691              1.679              1.433
 Vibration     6          0.802              1.377              0.819
 Vibration     7          0.858              1.244              0.651
 Vibration     8          0.858              1.243              0.650
 Vibration     9          0.938              1.072              0.483

 Optimization completed.
    -- Stationary point found.
 Normal termination of Gaussian 16 at Tue Jun  1 08:02:29 2021.
