 Gaussian 16, Revision A.03,
 Gaussian 16:  ES64L-G16RevA.03 25-Dec-2016

 -----------------------------
 # opt freq b3lyp/6-31g(2df,p)
 -----------------------------

 -------------------
 Title Card Required
 -------------------
 Symbolic Z-matrix:
 Charge =  0 Multiplicity = 1

 SCF Done:  E(RB3LYP) =  -513.810670114     A.U. after   12 cycles
 SCF Done:  E(RB3LYP) =  -513.823666810     A.U. after   10 cycles
 SCF Done:  E(RB3LYP) =  -513.826388038     A.U. after   10 cycles
 SCF Done:  E(RB3LYP) =  -513.827867626     A.U. after   11 cycles
 SCF Done:  E(RB3LYP) =  -513.828753192     A.U. after   10 cycles
 SCF Done:  E(RB3LYP) =  -513.828954401     A.U. after   10 cycles
 SCF Done:  E(RB3LYP) =  -513.829139258     A.U. after   10 cycles
 SCF Done:  E(RB3LYP) =  -513.829233626     A.U. after   10 cycles
 SCF Done:  E(RB3LYP) =  -513.829337518     A.U. after   10 cycles
 SCF Done:  E(RB3LYP) =  -513.829514403     A.U. after   10 cycles
 SCF Done:  E(RB3LYP) =  -513.832420120     A.U. after   11 cycles
 SCF Done:  E(RB3LYP) =  -513.833523217     A.U. after   10 cycles
 SCF Done:  E(RB3LYP) =  -513.834075841     A.U. after   10 cycles
 SCF Done:  E(RB3LYP) =  -513.834136589     A.U. after    9 cycles
 SCF Done:  E(RB3LYP) =  -513.834150641     A.U. after    9 cycles
 SCF Done:  E(RB3LYP) =  -513.834159082     A.U. after    8 cycles
 SCF Done:  E(RB3LYP) =  -513.834161210     A.U. after    8 cycles
 SCF Done:  E(RB3LYP) =  -513.834161579     A.U. after    6 cycles
 SCF Done:  E(RB3LYP) =  -513.834161682     A.U. after    6 cycles
 Optimization completed.
    -- Stationary point found.
 Normal termination of Gaussian 16 at Tue Jun  1 04:09:32 2021.

 ----------------------------------------------------------------------
 #N Geom=AllCheck Guess=TCheck SCRF=Check GenChk RB3LYP/6-31G(2df,p) Fr
 eq
 ----------------------------------------------------------------------

 Structure from the checkpoint file:  "CNCpCNpNCCNCN.chk"
 -------------------
 Title Card Required
 -------------------
 Charge =  0 Multiplicity = 1

                         Standard orientation:
 ---------------------------------------------------------------------
 Center     Atomic      Atomic             Coordinates (Angstroms)
 Number     Number       Type             X           Y           Z
 ---------------------------------------------------------------------
      1          6           0        3.261217   -1.949909    0.087835
      2          7           0        2.256608   -1.119298   -0.577569
      3          6           0        1.899119    0.132667    0.105771
      4          6           0        2.922574    1.248242   -0.170428
      5          7           0        4.217449    0.998814    0.473528
      6          7           0        0.594436    0.616961   -0.318246
      7          6           0       -0.559662   -0.164114    0.109566
      8          6           0       -1.857121    0.575513   -0.219350
      9          7           0       -3.015136   -0.209260    0.183035
     10          6           0       -4.290917    0.396514   -0.151977
     11          7           0       -5.346958   -0.467559    0.358099
     12          1           0        3.360632   -2.893258   -0.458363
     13          1           0        3.011301   -2.189755    1.138467
     14          1           0        4.222837   -1.436645    0.086410
     15          1           0        1.407143   -1.665965   -0.667394
     16          1           0        1.838903   -0.011152    1.203815
     17          1           0        2.449389    2.195212    0.131486
     18          1           0        3.088334    1.286946   -1.253461
     19          1           0        4.125163    1.112587    1.479393
     20          1           0        4.887248    1.700149    0.173727
     21          1           0        0.594458    0.709210   -1.330829
     22          1           0       -0.484435   -0.298934    1.197084
     23          1           0       -0.627569   -1.176201   -0.327384
     24          1           0       -1.915822    0.731094   -1.306092
     25          1           0       -1.817572    1.581142    0.236162
     26          1           0       -3.002965   -0.372877    1.186068
     27          1           0       -4.302012    0.543870   -1.247154
     28          1           0       -4.437033    1.395916    0.300909
     29          1           0       -5.339676   -1.344574   -0.154306
     30          1           0       -6.254361   -0.037845    0.211022
 ---------------------------------------------------------------------

 SCF Done:  E(RB3LYP) =  -513.834161682     A.U. after    1 cycles

 The electronic state is 1-A.
 Alpha  occ. eigenvalues --  -14.30892 -14.30667 -14.30651 -14.30524 -14.29771
 Alpha  occ. eigenvalues --  -10.22558 -10.22415 -10.20278 -10.20029 -10.19285
 Alpha  occ. eigenvalues --  -10.17963  -0.92753  -0.91612  -0.87017  -0.85660
 Alpha  occ. eigenvalues --   -0.84378  -0.73284  -0.67838  -0.64310  -0.62012
 Alpha  occ. eigenvalues --   -0.60105  -0.57845  -0.50206  -0.49811  -0.48875
 Alpha  occ. eigenvalues --   -0.47970  -0.46459  -0.44674  -0.43050  -0.42129
 Alpha  occ. eigenvalues --   -0.41482  -0.40159  -0.39384  -0.39073  -0.37414
 Alpha  occ. eigenvalues --   -0.36816  -0.35501  -0.34859  -0.34022  -0.32958
 Alpha  occ. eigenvalues --   -0.23998  -0.23491  -0.22605  -0.21833  -0.20774
 Alpha virt. eigenvalues --    0.08303   0.08760   0.09040   0.10132   0.10453
 Alpha virt. eigenvalues --    0.12111   0.13182   0.14413   0.15335   0.16237
 Alpha virt. eigenvalues --    0.16319   0.17421   0.17681   0.17914   0.18657

 Mulliken charges:
               1
     1  C   -0.314762
     2  N   -0.295321
     3  C    0.073391
     4  C   -0.139256
     5  N   -0.509894
     6  N   -0.296468
     7  C   -0.155669
     8  C   -0.137989
     9  N   -0.281049
    10  C   -0.079528
    11  N   -0.513151
    12  H    0.104176
    13  H    0.079577
    14  H    0.152105
    15  H    0.212066
    16  H    0.047809
    17  H    0.084927
    18  H    0.101358
    19  H    0.223257
    20  H    0.227409
    21  H    0.213982
    22  H    0.099516
    23  H    0.089633
    24  H    0.095429
    25  H    0.087546
    26  H    0.216451
    27  H    0.081715
    28  H    0.078728
    29  H    0.228324
    30  H    0.225686
 Sum of Mulliken charges =  -0.00000

 Dipole moment (field-independent basis, Debye):
    X=             -0.9558    Y=              1.0800    Z=             -0.0189  Tot=              1.4423
 Quadrupole moment (field-independent basis, Debye-Ang):
   XX=            -64.3463   YY=            -68.6705   ZZ=            -68.8869
   XY=              3.7621   XZ=              7.7180   YZ=              0.5436

  Exact polarizability: 135.875   0.087  99.713   1.722  -1.517  87.789
 Approx polarizability: 150.323   0.456 140.850   0.795  -2.146 138.666

                      1                      2                      3
                      A                      A                      A
 Frequencies --     36.4246                41.9958                56.8558
 Red. masses --      3.7989                 1.8776                 3.3384
 Frc consts  --      0.0030                 0.0020                 0.0064
 IR Inten    --      0.1036                 1.7519                 0.3255

                      4                      5                      6
                      A                      A                      A
 Frequencies --     73.2114               104.8549               120.4338
 Red. masses --      2.6428                 2.6315                 2.3627
 Frc consts  --      0.0083                 0.0170                 0.0202
 IR Inten    --      0.3652                 0.9762                 1.8972

                      7                      8                      9
                      A                      A                      A
 Frequencies --    126.5506               171.8684               180.0082
 Red. masses --      1.9019                 1.8001                 2.4290
 Frc consts  --      0.0179                 0.0313                 0.0464
 IR Inten    --      1.5505                 4.0749                10.7533

                     10                     11                     12
                      A                      A                      A
 Frequencies --    215.0074               228.7143               250.4652
 Red. masses --      1.9737                 1.2815                 2.3275
 Frc consts  --      0.0538                 0.0395                 0.0860
 IR Inten    --      5.8146                12.6717                10.6568

                     13                     14                     15
                      A                      A                      A
 Frequencies --    267.5043               292.7574               320.6431
 Red. masses --      1.8657                 1.6219                 2.8996
 Frc consts  --      0.0787                 0.0819                 0.1756
 IR Inten    --     27.1602                24.4834                 0.3006

                     16                     17                     18
                      A                      A                      A
 Frequencies --    361.6147               461.0147               496.9310
 Red. masses --      3.4395                 2.8241                 3.4452
 Frc consts  --      0.2650                 0.3536                 0.5012
 IR Inten    --      3.1960                 8.7795                12.6593

                     19                     20                     21
                      A                      A                      A
 Frequencies --    517.1776               604.1040               730.1995
 Red. masses --      2.7088                 2.9886                 1.5955
 Frc consts  --      0.4269                 0.6426                 0.5012
 IR Inten    --     15.7786                 7.7259                83.7476

                     22                     23                     24
                      A                      A                      A
 Frequencies --    791.8269               807.3642               819.6756
 Red. masses --      1.2661                 1.1828                 1.3090
 Frc consts  --      0.4677                 0.4543                 0.5182
 IR Inten    --     70.3536                30.3129                59.1700

                     25                     26                     27
                      A                      A                      A
 Frequencies --    829.9147               863.1648               902.9203
 Red. masses --      1.3211                 1.2460                 1.9257
 Frc consts  --      0.5361                 0.5470                 0.9250
 IR Inten    --      8.7193               155.5526               108.9699

                     28                     29                     30
                      A                      A                      A
 Frequencies --    974.1459               996.9889              1028.5489
 Red. masses --      1.5830                 1.6770                 2.3392
 Frc consts  --      0.8851                 0.9821                 1.4580
 IR Inten    --      1.8730                17.1479                 5.0284

                     31                     32                     33
                      A                      A                      A
 Frequencies --   1047.7075              1064.0903              1090.6744
 Red. masses --      2.0411                 2.4164                 2.6172
 Frc consts  --      1.3201                 1.6121                 1.8344
 IR Inten    --     14.5371                 5.5968                 2.7609

                     34                     35                     36
                      A                      A                      A
 Frequencies --   1092.5644              1095.9840              1125.9387
 Red. masses --      2.5465                 2.0919                 2.1360
 Frc consts  --      1.7909                 1.4804                 1.5954
 IR Inten    --      1.8363                 2.4396                14.3957

                     37                     38                     39
                      A                      A                      A
 Frequencies --   1139.7097              1149.0771              1163.7916
 Red. masses --      1.4503                 2.8976                 2.4105
 Frc consts  --      1.1099                 2.2542                 1.9235
 IR Inten    --     11.3392                 7.8850               116.0240

                     40                     41                     42
                      A                      A                      A
 Frequencies --   1169.8884              1203.6760              1225.4689
 Red. masses --      2.1349                 1.3977                 1.6303
 Frc consts  --      1.7215                 1.1931                 1.4425
 IR Inten    --     84.0232                 5.1010                 9.2597

                     43                     44                     45
                      A                      A                      A
 Frequencies --   1242.0111              1265.9553              1302.5003
 Red. masses --      1.8908                 1.4396                 1.1730
 Frc consts  --      1.7185                 1.3593                 1.1725
 IR Inten    --      1.5008                11.6731                22.1905

                     46                     47                     48
                      A                      A                      A
 Frequencies --   1309.4964              1321.0557              1340.3963
 Red. masses --      1.2128                 1.1850                 1.2605
 Frc consts  --      1.2254                 1.2185                 1.3344
 IR Inten    --     11.6108                 1.3500                 6.9594

                     49                     50                     51
                      A                      A                      A
 Frequencies --   1362.0816              1364.0731              1409.4477
 Red. masses --      1.2582                 1.3194                 1.3597
 Frc consts  --      1.3753                 1.4464                 1.5914
 IR Inten    --      5.9940                23.5751                 8.2205

                     52                     53                     54
                      A                      A                      A
 Frequencies --   1422.8369              1446.4303              1453.8429
 Red. masses --      1.3870                 1.4054                 1.1704
 Frc consts  --      1.6544                 1.7323                 1.4575
 IR Inten    --      3.8923                 6.1824                 4.7379

                     55                     56                     57
                      A                      A                      A
 Frequencies --   1484.0946              1487.1534              1498.0312
 Red. masses --      1.1000                 1.2738                 1.1651
 Frc consts  --      1.4275                 1.6598                 1.5404
 IR Inten    --     24.4352                39.1806                26.5127

                     58                     59                     60
                      A                      A                      A
 Frequencies --   1500.6870              1505.8253              1511.1424
 Red. masses --      1.1221                 1.1229                 1.1853
 Frc consts  --      1.4889                 1.5002                 1.5947
 IR Inten    --      5.0653                 5.0617                40.2443

                     61                     62                     63
                      A                      A                      A
 Frequencies --   1520.4365              1532.0164              1539.8150
 Red. masses --      1.0926                 1.0725                 1.0865
 Frc consts  --      1.4882                 1.4831                 1.5178
 IR Inten    --      3.2909                17.0386                 0.9305

                     64                     65                     66
                      A                      A                      A
 Frequencies --   1642.5264              1657.8448              2892.1906
 Red. masses --      1.1006                 1.0880                 1.0805
 Frc consts  --      1.7495                 1.7618                 5.3250
 IR Inten    --     29.8047                24.8231                53.2125

                     67                     68                     69
                      A                      A                      A
 Frequencies --   2914.5509              2929.0740              2934.5633
 Red. masses --      1.0612                 1.0615                 1.0761
 Frc consts  --      5.3114                 5.3658                 5.4600
 IR Inten    --     81.1438                97.4397                16.9034

                     70                     71                     72
                      A                      A                      A
 Frequencies --   2936.9592              2949.0536              2979.4396
 Red. masses --      1.0913                 1.0700                 1.0670
 Frc consts  --      5.5459                 5.4828                 5.5804
 IR Inten    --     71.9270               124.9802                68.0831

                     73                     74                     75
                      A                      A                      A
 Frequencies --   3013.1542              3036.6198              3060.5793
 Red. masses --      1.0853                 1.0923                 1.0945
 Frc consts  --      5.8054                 5.9344                 6.0407
 IR Inten    --      6.5422                60.6577                28.4830

                     76                     77                     78
                      A                      A                      A
 Frequencies --   3070.7724              3146.7916              3486.6838
 Red. masses --      1.0756                 1.0971                 1.0499
 Frc consts  --      5.9757                 6.4008                 7.5199
 IR Inten    --     51.3038                 4.8876                 0.5217

                     79                     80                     81
                      A                      A                      A
 Frequencies --   3496.4047              3498.3172              3504.4021
 Red. masses --      1.0493                 1.0724                 1.0730
 Frc consts  --      7.5575                 7.7323                 7.7640
 IR Inten    --      0.2827                 0.1854                 0.5163

                     82                     83                     84
                      A                      A                      A
 Frequencies --   3523.4675              3565.2062              3582.9428
 Red. masses --      1.0732                 1.0916                 1.0924
 Frc consts  --      7.8503                 8.1748                 8.2628
 IR Inten    --      0.2712                 0.1375                 0.3595

 - Thermochemistry -
 -------------------
 Temperature   298.150 Kelvin.  Pressure   1.00000 Atm.
 Atom     1 has atomic number  6 and mass  12.00000

 Molecular mass:   161.16405 amu.
 Principal axes and moments of inertia in atomic units:
                           1         2         3
     Eigenvalues --   635.229475876.530526307.94408
           X            0.99998  -0.00364   0.00493
           Y            0.00370   0.99991  -0.01318
           Z           -0.00488   0.01320   0.99990
 This molecule is an asymmetric top.
 Rotational symmetry number  1.
 Warning -- assumption of classical behavior for rotation
           may cause significant error
 Rotational temperatures (Kelvin)      0.13635     0.01474     0.01373
 Rotational constants (GHZ):           2.84109     0.30711     0.28611
 Zero-point vibrational energy     723036.9 (Joules/Mol)
                                  172.80997 (Kcal/Mol)
 Warning -- explicit consideration of  20 degrees of freedom as
           vibrations may cause significant error
 Vibrational temperatures:     52.41    60.42    81.80   105.33   150.86
          (Kelvin)            173.28   182.08   247.28   258.99   309.35
                              329.07   360.36   384.88   421.21   461.33
                              520.28   663.30   714.97   744.10   869.17
                             1050.59  1139.26  1161.62  1179.33  1194.06
                             1241.90  1299.10  1401.58  1434.44  1479.85
                             1507.42  1530.99  1569.24  1571.96  1576.88
                             1619.97  1639.79  1653.27  1674.44  1683.21
                             1731.82  1763.18  1786.98  1821.43  1874.01
                             1884.07  1900.70  1928.53  1959.73  1962.60
                             2027.88  2047.14  2081.09  2091.76  2135.28
                             2139.68  2155.33  2159.15  2166.55  2174.20
                             2187.57  2204.23  2215.45  2363.23  2385.27
                             4161.22  4193.39  4214.28  4222.18  4225.63
                             4243.03  4286.75  4335.26  4369.02  4403.49
                             4418.16  4527.53  5016.56  5030.55  5033.30
                             5042.05  5069.48  5129.54  5155.06

 Zero-point correction=                           0.275390 (Hartree/Particle)
 Thermal correction to Energy=                    0.289936
 Thermal correction to Enthalpy=                  0.290880
 Thermal correction to Gibbs Free Energy=         0.232719
 Sum of electronic and zero-point Energies=           -513.558771
 Sum of electronic and thermal Energies=              -513.544226
 Sum of electronic and thermal Enthalpies=            -513.543282
 Sum of electronic and thermal Free Energies=         -513.601443

                     E (Thermal)             CV                S
                      KCal/Mol        Cal/Mol-Kelvin    Cal/Mol-Kelvin
 Total                  181.937             51.061            122.410
 Electronic               0.000              0.000              0.000
 Translational            0.889              2.981             41.141
 Rotational               0.889              2.981             31.532
 Vibrational            180.160             45.100             49.737
 Vibration     1          0.594              1.982              5.445
 Vibration     2          0.595              1.980              5.163
 Vibration     3          0.596              1.975              4.563
 Vibration     4          0.599              1.967              4.065
 Vibration     5          0.605              1.945              3.362
 Vibration     6          0.609              1.932              3.093
 Vibration     7          0.611              1.927              2.998
 Vibration     8          0.626              1.877              2.415
 Vibration     9          0.629              1.867              2.328
 Vibration    10          0.645              1.818              2.001
 Vibration    11          0.651              1.797              1.889
 Vibration    12          0.663              1.762              1.727
 Vibration    13          0.673              1.733              1.612
 Vibration    14          0.688              1.687              1.458
 Vibration    15          0.706              1.634              1.307
 Vibration    16          0.736              1.551              1.115
 Vibration    17          0.819              1.337              0.763
 Vibration    18          0.852              1.257              0.666
 Vibration    19          0.872              1.212              0.617
 Vibration    20          0.963              1.023              0.443

                           ! Non-Optimized Parameters !
 Normal termination of Gaussian 16 at Tue Jun  1 05:04:23 2021.
