 Gaussian 16, Revision A.03,
 Gaussian 16:  ES64L-G16RevA.03 25-Dec-2016

 -----------------------------
 # opt freq b3lyp/6-31g(2df,p)
 -----------------------------

 -------------------
 Title Card Required
 -------------------
 Symbolic Z-matrix:
 Charge =  0 Multiplicity = 1

 SCF Done:  E(RB3LYP) =  -421.772834877     A.U. after   13 cycles
 SCF Done:  E(RB3LYP) =  -421.777995256     A.U. after   13 cycles
 SCF Done:  E(RB3LYP) =  -421.778963492     A.U. after   13 cycles
 SCF Done:  E(RB3LYP) =  -421.779005212     A.U. after   13 cycles
 SCF Done:  E(RB3LYP) =  -421.779475429     A.U. after   13 cycles
 SCF Done:  E(RB3LYP) =  -421.781192714     A.U. after   12 cycles
 SCF Done:  E(RB3LYP) =  -421.781496892     A.U. after   13 cycles
 SCF Done:  E(RB3LYP) =  -421.781850367     A.U. after   13 cycles
 SCF Done:  E(RB3LYP) =  -421.782159174     A.U. after   10 cycles
 SCF Done:  E(RB3LYP) =  -421.782371700     A.U. after   12 cycles
 SCF Done:  E(RB3LYP) =  -421.782392395     A.U. after   11 cycles
 SCF Done:  E(RB3LYP) =  -421.782410150     A.U. after   10 cycles
 SCF Done:  E(RB3LYP) =  -421.782417383     A.U. after    9 cycles
 SCF Done:  E(RB3LYP) =  -421.782418509     A.U. after    8 cycles
 SCF Done:  E(RB3LYP) =  -421.782418985     A.U. after    8 cycles
 SCF Done:  E(RB3LYP) =  -421.782419050     A.U. after    7 cycles
 Optimization completed.
    -- Stationary point found.
 Normal termination of Gaussian 16 at Tue Jun  1 01:40:53 2021.

 ----------------------------------------------------------------------
 #N Geom=AllCheck Guess=TCheck SCRF=Check GenChk RB3LYP/6-31G(2df,p) Fr
 eq
 ----------------------------------------------------------------------

 Structure from the checkpoint file:  "CNCpCpNpCpCCdO.chk"
 -------------------
 Title Card Required
 -------------------
 Charge =  0 Multiplicity = 1

                         Standard orientation:
 ---------------------------------------------------------------------
 Center     Atomic      Atomic             Coordinates (Angstroms)
 Number     Number       Type             X           Y           Z
 ---------------------------------------------------------------------
      1          6           0       -3.421324    0.123117    0.193113
      2          7           0       -2.078898    0.606193   -0.121704
      3          6           0       -0.998215   -0.301338    0.251484
      4          6           0       -1.211125   -1.673012   -0.397319
      5          7           0        0.301197    0.248241   -0.198105
      6          6           0        0.402524    1.699271   -0.286329
      7          6           0        1.422387   -0.297722    0.544489
      8          6           0        2.698520   -0.283652   -0.284552
      9          8           0        3.806222   -0.159772    0.167436
     10          1           0       -4.126575    0.948683    0.064291
     11          1           0       -3.532545   -0.262929    1.222200
     12          1           0       -3.718153   -0.670809   -0.496961
     13          1           0       -1.945432    1.480344    0.374016
     14          1           0       -0.973175   -0.439271    1.358396
     15          1           0       -1.378516   -1.543549   -1.470102
     16          1           0       -2.062395   -2.199401    0.042082
     17          1           0       -0.332955   -2.308154   -0.261717
     18          1           0       -0.348126    2.088499   -0.974032
     19          1           0        1.388312    1.961386   -0.684085
     20          1           0        0.304579    2.214602    0.689853
     21          1           0        1.231431   -1.353785    0.775888
     22          1           0        1.617670    0.206065    1.508001
     23          1           0        2.513407   -0.424528   -1.373984
 ---------------------------------------------------------------------

 SCF Done:  E(RB3LYP) =  -421.782419050     A.U. after    1 cycles

 The electronic state is 1-A.
 Alpha  occ. eigenvalues --  -19.13884 -14.32867 -14.32173 -10.26815 -10.24373
 Alpha  occ. eigenvalues --  -10.21633 -10.20709 -10.20596 -10.17639  -1.04594
 Alpha  occ. eigenvalues --   -0.94679  -0.88851  -0.75042  -0.73410  -0.67855
 Alpha  occ. eigenvalues --   -0.65477  -0.57641  -0.56901  -0.51456  -0.49887
 Alpha  occ. eigenvalues --   -0.47919  -0.44828  -0.44614  -0.43008  -0.41802
 Alpha  occ. eigenvalues --   -0.41081  -0.40325  -0.39248  -0.38844  -0.36859
 Alpha  occ. eigenvalues --   -0.36102  -0.35982  -0.34800  -0.25286  -0.23910
 Alpha  occ. eigenvalues --   -0.21512
 Alpha virt. eigenvalues --   -0.02257   0.07242   0.10034   0.11008   0.11954
 Alpha virt. eigenvalues --    0.14021   0.14481   0.15003   0.15444   0.15754
 Alpha virt. eigenvalues --    0.16327   0.17077   0.17987   0.18266   0.18858

 Mulliken charges:
               1
     1  C   -0.319960
     2  N   -0.300932
     3  C    0.112381
     4  C   -0.381780
     5  N   -0.088667
     6  C   -0.348076
     7  C   -0.233871
     8  C    0.151232
     9  O   -0.240234
    10  H    0.120807
    11  H    0.097042
    12  H    0.131780
    13  H    0.222133
    14  H    0.038330
    15  H    0.130837
    16  H    0.115824
    17  H    0.114466
    18  H    0.143321
    19  H    0.127119
    20  H    0.090670
    21  H    0.127434
    22  H    0.104272
    23  H    0.085871
 Sum of Mulliken charges =  -0.00000

 Dipole moment (field-independent basis, Debye):
    X=             -3.1248    Y=              0.0941    Z=              0.6760  Tot=              3.1985
 Quadrupole moment (field-independent basis, Debye-Ang):
   XX=            -68.1627   YY=            -52.9852   ZZ=            -57.4555
   XY=             -0.5718   XZ=             -3.3751   YZ=              0.6767

  Exact polarizability: 105.392   1.521  78.200   0.415   0.575  71.347
 Approx polarizability: 132.682   2.576 110.698   4.574  -0.008 110.895

                      1                      2                      3
                      A                      A                      A
 Frequencies --     51.1354                64.8086                80.9502
 Red. masses --      3.9535                 4.1334                 2.4865
 Frc consts  --      0.0061                 0.0102                 0.0096
 IR Inten    --      1.3996                 3.1076                 4.4298

                      4                      5                      6
                      A                      A                      A
 Frequencies --    110.7364               180.3268               215.6087
 Red. masses --      2.2815                 2.3615                 1.0519
 Frc consts  --      0.0165                 0.0452                 0.0288
 IR Inten    --      2.4118                 2.3338                 0.1153

                      7                      8                      9
                      A                      A                      A
 Frequencies --    240.1179               259.9159               302.7008
 Red. masses --      2.1547                 1.3147                 1.4142
 Frc consts  --      0.0732                 0.0523                 0.0763
 IR Inten    --      0.1578                 2.3603                 1.9127

                     10                     11                     12
                      A                      A                      A
 Frequencies --    319.0127               354.2792               380.2885
 Red. masses --      2.9150                 2.1682                 2.4064
 Frc consts  --      0.1748                 0.1603                 0.2050
 IR Inten    --      0.2652                 4.3775                 2.2153

                     13                     14                     15
                      A                      A                      A
 Frequencies --    431.3409               461.9645               500.4979
 Red. masses --      3.0426                 2.5010                 2.4393
 Frc consts  --      0.3335                 0.3145                 0.3600
 IR Inten    --      6.7362                11.6650                10.5497

                     16                     17                     18
                      A                      A                      A
 Frequencies --    597.0249               753.0075               806.1822
 Red. masses --      3.1459                 1.5439                 2.4932
 Frc consts  --      0.6607                 0.5158                 0.9547
 IR Inten    --      2.0808                 5.5971                17.9965

                     19                     20                     21
                      A                      A                      A
 Frequencies --    827.2163               896.1092              1000.5502
 Red. masses --      1.3609                 2.1185                 1.8526
 Frc consts  --      0.5487                 1.0023                 1.0927
 IR Inten    --     52.4741                 9.1861                26.9391

                     22                     23                     24
                      A                      A                      A
 Frequencies --   1037.5796              1056.1315              1069.6837
 Red. masses --      2.4512                 2.1593                 1.8881
 Frc consts  --      1.5548                 1.4190                 1.2729
 IR Inten    --     54.7209                 4.4260                11.0505

                     25                     26                     27
                      A                      A                      A
 Frequencies --   1076.4481              1092.4736              1139.9047
 Red. masses --      2.1410                 1.5927                 1.4072
 Frc consts  --      1.4617                 1.1200                 1.0773
 IR Inten    --      3.8277                 2.3905                 3.4700

                     28                     29                     30
                      A                      A                      A
 Frequencies --   1159.6725              1180.0195              1201.1479
 Red. masses --      1.5121                 2.4406                 2.6305
 Frc consts  --      1.1981                 2.0023                 2.2360
 IR Inten    --      5.3470                33.1172                45.7170

                     31                     32                     33
                      A                      A                      A
 Frequencies --   1217.2834              1260.8906              1291.0808
 Red. masses --      1.5924                 2.3686                 1.4455
 Frc consts  --      1.3902                 2.2187                 1.4197
 IR Inten    --     17.8002                20.7598                14.1771

                     34                     35                     36
                      A                      A                      A
 Frequencies --   1343.0467              1375.6678              1387.5682
 Red. masses --      1.5421                 1.2770                 1.2806
 Frc consts  --      1.6388                 1.4239                 1.4527
 IR Inten    --     33.0874                10.5641                36.8134

                     37                     38                     39
                      A                      A                      A
 Frequencies --   1401.8070              1407.0459              1448.1497
 Red. masses --      1.2563                 1.3071                 1.1220
 Frc consts  --      1.4546                 1.5246                 1.3863
 IR Inten    --      4.5523                25.8212                 9.0881

                     40                     41                     42
                      A                      A                      A
 Frequencies --   1460.3741              1470.7784              1485.4711
 Red. masses --      1.1635                 1.1563                 1.0657
 Frc consts  --      1.4620                 1.4737                 1.3856
 IR Inten    --      1.5852                 1.4853                 0.8839

                     43                     44                     45
                      A                      A                      A
 Frequencies --   1489.8897              1497.6993              1502.6376
 Red. masses --      1.0752                 1.0613                 1.1346
 Frc consts  --      1.4063                 1.4025                 1.5094
 IR Inten    --     11.5474                 9.3380                19.6363

                     46                     47                     48
                      A                      A                      A
 Frequencies --   1503.8392              1516.9665              1531.9287
 Red. masses --      1.0515                 1.0502                 1.1006
 Frc consts  --      1.4010                 1.4239                 1.5219
 IR Inten    --      1.5152                14.5841                10.8689

                     49                     50                     51
                      A                      A                      A
 Frequencies --   1837.8110              2801.1932              2879.0740
 Red. masses --     10.4998                 1.0790                 1.0835
 Frc consts  --     20.8946                 4.9884                 5.2916
 IR Inten    --    174.1859                92.6986                84.3150

                     52                     53                     54
                      A                      A                      A
 Frequencies --   2908.9647              2946.3367              2950.8989
 Red. masses --      1.0625                 1.0600                 1.0694
 Frc consts  --      5.2974                 5.4214                 5.4867
 IR Inten    --     79.5902                77.0234                60.0556

                     55                     56                     57
                      A                      A                      A
 Frequencies --   3045.5342              3051.8736              3067.8242
 Red. masses --      1.0777                 1.0448                 1.0747
 Frc consts  --      5.8896                 5.7334                 5.9592
 IR Inten    --      4.3229                19.1933                26.3547

                     58                     59                     60
                      A                      A                      A
 Frequencies --   3077.7307              3115.2539              3125.2843
 Red. masses --      1.0720                 1.1028                 1.1003
 Frc consts  --      5.9826                 6.3055                 6.3319
 IR Inten    --     33.4072                29.9880                26.3919

                     61                     62                     63
                      A                      A                      A
 Frequencies --   3131.1213              3140.9135              3530.3504
 Red. masses --      1.1023                 1.0964                 1.0735
 Frc consts  --      6.3671                 6.3728                 7.8831
 IR Inten    --     17.6923                12.7228                 0.1392

 - Thermochemistry -
 -------------------
 Temperature   298.150 Kelvin.  Pressure   1.00000 Atm.
 Atom     1 has atomic number  6 and mass  12.00000

 Molecular mass:   130.11061 amu.
 Principal axes and moments of inertia in atomic units:
                           1         2         3
     Eigenvalues --   472.070562378.979982690.29913
           X            0.99995   0.00894  -0.00517
           Y           -0.00890   0.99992   0.00887
           Z            0.00525  -0.00882   0.99995
 This molecule is an asymmetric top.
 Rotational symmetry number  1.
 Warning -- assumption of classical behavior for rotation
           may cause significant error
 Rotational temperatures (Kelvin)      0.18348     0.03641     0.03219
 Rotational constants (GHZ):           3.82303     0.75862     0.67083
 Zero-point vibrational energy     532632.1 (Joules/Mol)
                                  127.30212 (Kcal/Mol)
 Warning -- explicit consideration of  16 degrees of freedom as
           vibrations may cause significant error
 Vibrational temperatures:     73.57    93.25   116.47   159.32   259.45
          (Kelvin)            310.21   345.48   373.96   435.52   458.99
                              509.73   547.15   620.60   664.66   720.10
                              858.99  1083.41  1159.92  1190.18  1289.30
                             1439.57  1492.85  1519.54  1539.04  1548.77
                             1571.83  1640.07  1668.51  1697.78  1728.18
                             1751.40  1814.14  1857.58  1932.34  1979.28
                             1996.40  2016.89  2024.43  2083.56  2101.15
                             2116.12  2137.26  2143.62  2154.86  2161.96
                             2163.69  2182.58  2204.10  2644.20  4030.29
                             4142.35  4185.35  4239.12  4245.69  4381.84
                             4390.97  4413.91  4428.17  4482.16  4496.59
                             4504.99  4519.07  5079.39

 Zero-point correction=                           0.202869 (Hartree/Particle)
 Thermal correction to Energy=                    0.214028
 Thermal correction to Enthalpy=                  0.214973
 Thermal correction to Gibbs Free Energy=         0.165867
 Sum of electronic and zero-point Energies=           -421.579550
 Sum of electronic and thermal Energies=              -421.568391
 Sum of electronic and thermal Enthalpies=            -421.567447
 Sum of electronic and thermal Free Energies=         -421.616552

                     E (Thermal)             CV                S
                      KCal/Mol        Cal/Mol-Kelvin    Cal/Mol-Kelvin
 Total                  134.305             39.622            103.351
 Electronic               0.000              0.000              0.000
 Translational            0.889              2.981             40.503
 Rotational               0.889              2.981             29.492
 Vibrational            132.527             33.660             33.356
 Vibration     1          0.595              1.977              4.773
 Vibration     2          0.597              1.971              4.305
 Vibration     3          0.600              1.962              3.868
 Vibration     4          0.607              1.941              3.256
 Vibration     5          0.629              1.866              2.325
 Vibration     6          0.645              1.817              1.996
 Vibration     7          0.657              1.779              1.802
 Vibration     8          0.668              1.746              1.662
 Vibration     9          0.694              1.669              1.402
 Vibration    10          0.705              1.637              1.315
 Vibration    11          0.730              1.566              1.147
 Vibration    12          0.750              1.512              1.038
 Vibration    13          0.792              1.402              0.854
 Vibration    14          0.820              1.334              0.760
 Vibration    15          0.856              1.249              0.657
 Vibration    16          0.955              1.038              0.455

 Optimization completed.
    -- Stationary point found.
 Normal termination of Gaussian 16 at Tue Jun  1 02:19:04 2021.
