 Gaussian 16, Revision A.03,
 Gaussian 16:  ES64L-G16RevA.03 25-Dec-2016

 -----------------------------
 # opt freq b3lyp/6-31g(2df,p)
 -----------------------------

 -------------------
 Title Card Required
 -------------------
 Symbolic Z-matrix:
 Charge =  0 Multiplicity = 1

 SCF Done:  E(RB3LYP) =  -340.481048247     A.U. after   12 cycles
 SCF Done:  E(RB3LYP) =  -340.487293139     A.U. after   11 cycles
 SCF Done:  E(RB3LYP) =  -340.490171707     A.U. after   11 cycles
 SCF Done:  E(RB3LYP) =  -340.491279145     A.U. after   10 cycles
 SCF Done:  E(RB3LYP) =  -340.491903034     A.U. after   10 cycles
 SCF Done:  E(RB3LYP) =  -340.492691807     A.U. after   11 cycles
 SCF Done:  E(RB3LYP) =  -340.493582635     A.U. after   13 cycles
 SCF Done:  E(RB3LYP) =  -340.495410951     A.U. after   11 cycles
 SCF Done:  E(RB3LYP) =  -340.496587860     A.U. after   10 cycles
 SCF Done:  E(RB3LYP) =  -340.497244770     A.U. after   10 cycles
 SCF Done:  E(RB3LYP) =  -340.497447307     A.U. after   10 cycles
 SCF Done:  E(RB3LYP) =  -340.497518676     A.U. after    9 cycles
 SCF Done:  E(RB3LYP) =  -340.497534043     A.U. after    9 cycles
 SCF Done:  E(RB3LYP) =  -340.497537592     A.U. after    8 cycles
 SCF Done:  E(RB3LYP) =  -340.497538766     A.U. after    7 cycles
 SCF Done:  E(RB3LYP) =  -340.497539053     A.U. after    6 cycles
 Optimization completed.
    -- Stationary point found.
 Normal termination of Gaussian 16 at Tue Jun  1 08:46:32 2021.

 ----------------------------------------------------------------------
 #N Geom=AllCheck Guess=TCheck SCRF=Check GenChk RB3LYP/6-31G(2df,p) Fr
 eq
 ----------------------------------------------------------------------

 Structure from the checkpoint file:  "CNCpCpNpNpN.chk"
 -------------------
 Title Card Required
 -------------------
 Charge =  0 Multiplicity = 1

                         Standard orientation:
 ---------------------------------------------------------------------
 Center     Atomic      Atomic             Coordinates (Angstroms)
 Number     Number       Type             X           Y           Z
 ---------------------------------------------------------------------
      1          6           0        2.543189   -0.426318    0.265010
      2          7           0        1.281017   -0.456657   -0.458252
      3          6           0        0.215505    0.308907    0.169127
      4          6           0        0.361010    1.793344   -0.169011
      5          7           0       -1.075769   -0.205498   -0.327723
      6          7           0       -1.159251   -1.596143   -0.030674
      7          7           0       -2.202247    0.474460    0.226499
      8          1           0        3.239911   -1.126734   -0.204134
      9          1           0        2.458574   -0.692534    1.335573
     10          1           0        3.000497    0.567957    0.211143
     11          1           0        0.944771   -1.412182   -0.522916
     12          1           0        0.234684    0.193847    1.285021
     13          1           0        0.223969    1.935459   -1.244452
     14          1           0        1.362853    2.137442    0.099420
     15          1           0       -0.354311    2.414366    0.376104
     16          1           0       -1.923715   -1.959045   -0.592035
     17          1           0       -1.440780   -1.719949    0.947777
     18          1           0       -2.371868    1.304078   -0.333293
     19          1           0       -1.999063    0.788569    1.182086
 ---------------------------------------------------------------------

 SCF Done:  E(RB3LYP) =  -340.497539053     A.U. after    1 cycles

 The electronic state is 1-A.
 Alpha  occ. eigenvalues --  -14.36897 -14.33843 -14.33739 -14.29668 -10.23132
 Alpha  occ. eigenvalues --  -10.19290 -10.17074  -1.00633  -0.89098  -0.85491
 Alpha  occ. eigenvalues --   -0.75761  -0.69355  -0.65206  -0.57638  -0.51497
 Alpha  occ. eigenvalues --   -0.50374  -0.48838  -0.46371  -0.45873  -0.42287
 Alpha  occ. eigenvalues --   -0.39887  -0.38931  -0.37092  -0.35919  -0.34417
 Alpha  occ. eigenvalues --   -0.27666  -0.25535  -0.23180  -0.21126
 Alpha virt. eigenvalues --    0.07028   0.09982   0.10772   0.12374   0.14237
 Alpha virt. eigenvalues --    0.15188   0.15629   0.16263   0.16838   0.17532
 Alpha virt. eigenvalues --    0.19855   0.20430   0.20864   0.22951   0.24653

 Mulliken charges:
               1
     1  C   -0.317544
     2  N   -0.286633
     3  C    0.151502
     4  C   -0.392332
     5  N   -0.096693
     6  N   -0.433958
     7  N   -0.463281
     8  H    0.118346
     9  H    0.088751
    10  H    0.117138
    11  H    0.233009
    12  H    0.017274
    13  H    0.131302
    14  H    0.121123
    15  H    0.096234
    16  H    0.246002
    17  H    0.211414
    18  H    0.247917
    19  H    0.210431
 Sum of Mulliken charges =  -0.00000

 Dipole moment (field-independent basis, Debye):
    X=             -0.5963    Y=              0.5201    Z=              1.6633  Tot=              1.8419
 Quadrupole moment (field-independent basis, Debye-Ang):
   XX=            -44.2422   YY=            -41.1056   ZZ=            -45.4343
   XY=             -0.3931   XZ=              0.2929   YZ=             -0.1387

  Exact polarizability:  74.124  -1.797  68.323  -0.320   0.282  55.766
 Approx polarizability:  92.924  -2.574  93.266  -0.690   1.943  88.356

                      1                      2                      3
                      A                      A                      A
 Frequencies --     93.2180                98.9784               206.5359
 Red. masses --      2.8454                 2.1809                 1.2677
 Frc consts  --      0.0146                 0.0126                 0.0319
 IR Inten    --      0.9409                 0.2316                 0.9371

                      4                      5                      6
                      A                      A                      A
 Frequencies --    213.9574               245.7975               284.1095
 Red. masses --      1.0853                 1.9422                 1.3555
 Frc consts  --      0.0293                 0.0691                 0.0645
 IR Inten    --      0.8633                19.3271                30.1189

                      7                      8                      9
                      A                      A                      A
 Frequencies --    323.2476               347.2793               394.4613
 Red. masses --      1.9982                 1.3085                 2.2919
 Frc consts  --      0.1230                 0.0930                 0.2101
 IR Inten    --      5.2735                 6.5734                 0.2163

                     10                     11                     12
                      A                      A                      A
 Frequencies --    426.0913               470.4551               505.2328
 Red. masses --      3.0902                 3.1941                 2.8199
 Frc consts  --      0.3306                 0.4165                 0.4241
 IR Inten    --      3.4148                 8.8949                19.9499

                     13                     14                     15
                      A                      A                      A
 Frequencies --    569.0903               794.3483               844.4607
 Red. masses --      2.6938                 2.6264                 1.4294
 Frc consts  --      0.5140                 0.9764                 0.6006
 IR Inten    --     17.7135                31.4864                69.2342

                     16                     17                     18
                      A                      A                      A
 Frequencies --    894.8264               907.7699               943.9628
 Red. masses --      2.1103                 2.1522                 1.8742
 Frc consts  --      0.9956                 1.0449                 0.9840
 IR Inten    --     15.1810               122.7574                33.4651

                     19                     20                     21
                      A                      A                      A
 Frequencies --   1047.6227              1072.9820              1103.9695
 Red. masses --      1.5748                 1.7928                 1.7067
 Frc consts  --      1.0183                 1.2161                 1.2255
 IR Inten    --      6.6103                18.2700                 9.4473

                     22                     23                     24
                      A                      A                      A
 Frequencies --   1141.7545              1167.2521              1186.3401
 Red. masses --      2.0908                 2.0790                 2.2047
 Frc consts  --      1.6058                 1.6689                 1.8282
 IR Inten    --     19.2112                11.1452                60.3615

                     25                     26                     27
                      A                      A                      A
 Frequencies --   1209.5575              1245.2246              1298.5129
 Red. masses --      1.8043                 1.8761                 1.2227
 Frc consts  --      1.5553                 1.7140                 1.2147
 IR Inten    --      2.6498                 6.8835                 8.9495

                     28                     29                     30
                      A                      A                      A
 Frequencies --   1324.6678              1370.4999              1392.0860
 Red. masses --      1.3676                 1.3686                 1.2838
 Frc consts  --      1.4139                 1.5145                 1.4659
 IR Inten    --     17.0489                30.1502                10.7235

                     31                     32                     33
                      A                      A                      A
 Frequencies --   1405.9238              1461.8531              1484.6010
 Red. masses --      1.3492                 1.1874                 1.0792
 Frc consts  --      1.5713                 1.4950                 1.4015
 IR Inten    --     25.9086                 0.7549                12.7437

                     34                     35                     36
                      A                      A                      A
 Frequencies --   1487.2048              1497.1593              1507.7662
 Red. masses --      1.0772                 1.0717                 1.1034
 Frc consts  --      1.4038                 1.4153                 1.4779
 IR Inten    --     18.3274                11.7815                 3.0693

                     37                     38                     39
                      A                      A                      A
 Frequencies --   1521.8697              1657.3896              1672.8161
 Red. masses --      1.1065                 1.0853                 1.0779
 Frc consts  --      1.5099                 1.7565                 1.7771
 IR Inten    --     42.8771                11.2571                21.1112

                     40                     41                     42
                      A                      A                      A
 Frequencies --   2745.6414              2927.6791              3048.8619
 Red. masses --      1.0764                 1.0612                 1.0407
 Frc consts  --      4.7810                 5.3594                 5.6996
 IR Inten    --    112.2500                93.1856                10.7159

                     43                     44                     45
                      A                      A                      A
 Frequencies --   3055.2192              3102.7362              3121.7284
 Red. masses --      1.0668                 1.0992                 1.1004
 Frc consts  --      5.8669                 6.2350                 6.3180
 IR Inten    --     48.3803                30.4759                26.0532

                     46                     47                     48
                      A                      A                      A
 Frequencies --   3130.9974              3351.8693              3363.9320
 Red. masses --      1.1025                 1.0571                 1.0590
 Frc consts  --      6.3676                 6.9974                 7.0607
 IR Inten    --     17.3564                18.3502                12.4675

                     49                     50                     51
                      A                      A                      A
 Frequencies --   3523.9370              3541.9968              3547.9581
 Red. masses --      1.0728                 1.0813                 1.0826
 Frc consts  --      7.8491                 7.9929                 8.0295
 IR Inten    --     32.7205                 4.0244                 1.0118

 - Thermochemistry -
 -------------------
 Temperature   298.150 Kelvin.  Pressure   1.00000 Atm.
 Atom     1 has atomic number  6 and mass  12.00000

 Molecular mass:   104.10620 amu.
 Principal axes and moments of inertia in atomic units:
                           1         2         3
     Eigenvalues --   452.57155 945.506181291.30972
           X            0.99997  -0.00563   0.00455
           Y            0.00567   0.99995  -0.00814
           Z           -0.00451   0.00816   0.99996
 This molecule is an asymmetric top.
 Rotational symmetry number  1.
 Warning -- assumption of classical behavior for rotation
           may cause significant error
 Rotational temperatures (Kelvin)      0.19138     0.09161     0.06707
 Rotational constants (GHZ):           3.98775     1.90876     1.39761
 Zero-point vibrational energy     450294.9 (Joules/Mol)
                                  107.62307 (Kcal/Mol)
 Warning -- explicit consideration of  13 degrees of freedom as
           vibrations may cause significant error
 Vibrational temperatures:    134.12   142.41   297.16   307.84   353.65
          (Kelvin)            408.77   465.08   499.66   567.54   613.05
                              676.88   726.92   818.79  1142.89  1214.99
                             1287.46  1306.08  1358.15  1507.30  1543.78
                             1588.37  1642.73  1679.42  1706.88  1740.28
                             1791.60  1868.27  1905.90  1971.84  2002.90
                             2022.81  2103.28  2136.01  2139.76  2154.08
                             2169.34  2189.63  2384.61  2406.81  3950.37
                             4212.28  4386.63  4395.78  4464.15  4491.47
                             4504.81  4822.59  4839.95  5070.16  5096.14
                             5104.72

 Zero-point correction=                           0.171508 (Hartree/Particle)
 Thermal correction to Energy=                    0.180399
 Thermal correction to Enthalpy=                  0.181343
 Thermal correction to Gibbs Free Energy=         0.138736
 Sum of electronic and zero-point Energies=           -340.326031
 Sum of electronic and thermal Energies=              -340.317140
 Sum of electronic and thermal Enthalpies=            -340.316196
 Sum of electronic and thermal Free Energies=         -340.358803

                     E (Thermal)             CV                S
                      KCal/Mol        Cal/Mol-Kelvin    Cal/Mol-Kelvin
 Total                  113.202             32.558             89.675
 Electronic               0.000              0.000              0.000
 Translational            0.889              2.981             39.838
 Rotational               0.889              2.981             27.804
 Vibrational            111.425             26.596             22.033
 Vibration     1          0.602              1.954              3.591
 Vibration     2          0.604              1.950              3.474
 Vibration     3          0.641              1.831              2.074
 Vibration     4          0.644              1.820              2.010
 Vibration     5          0.660              1.770              1.761
 Vibration     6          0.683              1.703              1.509
 Vibration     7          0.708              1.629              1.294
 Vibration     8          0.725              1.581              1.179
 Vibration     9          0.761              1.482              0.983
 Vibration    10          0.788              1.413              0.872
 Vibration    11          0.827              1.316              0.736
 Vibration    12          0.860              1.238              0.645
 Vibration    13          0.925              1.098              0.506

                           ! Non-Optimized Parameters !
 Normal termination of Gaussian 16 at Tue Jun  1 09:07:03 2021.
