 Gaussian 16, Revision A.03,
 Gaussian 16:  ES64L-G16RevA.03 25-Dec-2016

 -----------------------------
 # opt freq b3lyp/6-31g(2df,p)
 -----------------------------

 -------------------
 Title Card Required
 -------------------
 Symbolic Z-matrix:
 Charge =  0 Multiplicity = 1

 SCF Done:  E(RB3LYP) =  -363.814298584     A.U. after   12 cycles
 SCF Done:  E(RB3LYP) =  -363.820635312     A.U. after   11 cycles
 SCF Done:  E(RB3LYP) =  -363.821622781     A.U. after   10 cycles
 SCF Done:  E(RB3LYP) =  -363.821758457     A.U. after    9 cycles
 SCF Done:  E(RB3LYP) =  -363.821813779     A.U. after    9 cycles
 SCF Done:  E(RB3LYP) =  -363.821841221     A.U. after    9 cycles
 SCF Done:  E(RB3LYP) =  -363.821902217     A.U. after   10 cycles
 SCF Done:  E(RB3LYP) =  -363.821850043     A.U. after   11 cycles
 SCF Done:  E(RB3LYP) =  -363.822011534     A.U. after   10 cycles
 SCF Done:  E(RB3LYP) =  -363.821941025     A.U. after   10 cycles
 SCF Done:  E(RB3LYP) =  -363.822079868     A.U. after   10 cycles
 SCF Done:  E(RB3LYP) =  -363.822541673     A.U. after    7 cycles
 SCF Done:  E(RB3LYP) =  -363.822653529     A.U. after   10 cycles
 SCF Done:  E(RB3LYP) =  -363.822691538     A.U. after    9 cycles
 SCF Done:  E(RB3LYP) =  -363.822705408     A.U. after    9 cycles
 SCF Done:  E(RB3LYP) =  -363.822708303     A.U. after    7 cycles
 SCF Done:  E(RB3LYP) =  -363.822709125     A.U. after    6 cycles
 SCF Done:  E(RB3LYP) =  -363.822709328     A.U. after    6 cycles
 SCF Done:  E(RB3LYP) =  -363.822709372     A.U. after    6 cycles
 Optimization completed.
    -- Stationary point found.
 Normal termination of Gaussian 16 at Tue Jun  1 13:43:30 2021.

 ----------------------------------------------------------------------
 #N Geom=AllCheck Guess=TCheck SCRF=Check GenChk RB3LYP/6-31G(2df,p) Fr
 eq
 ----------------------------------------------------------------------

 Structure from the checkpoint file:  "CNCpCppCpNCN.chk"
 -------------------
 Title Card Required
 -------------------
 Charge =  0 Multiplicity = 1

                         Standard orientation:
 ---------------------------------------------------------------------
 Center     Atomic      Atomic             Coordinates (Angstroms)
 Number     Number       Type             X           Y           Z
 ---------------------------------------------------------------------
      1          6           0        2.840498   -0.642620    0.106178
      2          7           0        1.426487   -0.881024    0.369722
      3          6           0        0.468035    0.159132   -0.043007
      4          6           0        0.542168    1.390202    0.892792
      5          6           0        0.743837    0.580395   -1.494955
      6          7           0       -0.841268   -0.515740   -0.002098
      7          6           0       -2.047181    0.275802    0.127875
      8          7           0       -3.175927   -0.644481    0.033612
      9          1           0        3.418527   -1.432936    0.594102
     10          1           0        3.231480    0.325285    0.465417
     11          1           0        3.044894   -0.707207   -0.966079
     12          1           0        1.306375   -1.032888    1.367294
     13          1           0        1.551186    1.814345    0.896834
     14          1           0        0.286781    1.106093    1.920146
     15          1           0       -0.144345    2.184754    0.583613
     16          1           0        1.666782    1.160053   -1.588610
     17          1           0       -0.075710    1.205538   -1.859336
     18          1           0        0.806039   -0.306684   -2.129400
     19          1           0       -0.840028   -1.253082    0.693248
     20          1           0       -2.027566    1.052716   -0.656876
     21          1           0       -2.149435    0.808078    1.091246
     22          1           0       -3.173989   -1.074818   -0.886681
     23          1           0       -4.050180   -0.137985    0.133131
 ---------------------------------------------------------------------

 SCF Done:  E(RB3LYP) =  -363.822709372     A.U. after    1 cycles

 The electronic state is 1-A.
 Alpha  occ. eigenvalues --  -14.30798 -14.30155 -14.29605 -10.23715 -10.22158
 Alpha  occ. eigenvalues --  -10.19701 -10.16832 -10.16406  -0.92989  -0.88618
 Alpha  occ. eigenvalues --   -0.82876  -0.73904  -0.68507  -0.67022  -0.61997
 Alpha  occ. eigenvalues --   -0.55181  -0.50288  -0.49440  -0.45809  -0.44468
 Alpha  occ. eigenvalues --   -0.42711  -0.41680  -0.40738  -0.39017  -0.38219
 Alpha  occ. eigenvalues --   -0.38118  -0.36564  -0.35235  -0.34565  -0.33391
 Alpha  occ. eigenvalues --   -0.23514  -0.22192  -0.20593
 Alpha virt. eigenvalues --    0.07269   0.09585   0.11098   0.12361   0.13049
 Alpha virt. eigenvalues --    0.14102   0.15136   0.16038   0.16296   0.17699
 Alpha virt. eigenvalues --    0.18354   0.18944   0.19423   0.20756   0.21714

 Mulliken charges:
               1
     1  C   -0.321254
     2  N   -0.302395
     3  C    0.290483
     4  C   -0.415002
     5  C   -0.387824
     6  N   -0.296638
     7  C   -0.093135
     8  N   -0.510798
     9  H    0.117692
    10  H    0.094110
    11  H    0.128251
    12  H    0.206507
    13  H    0.111381
    14  H    0.103236
    15  H    0.113519
    16  H    0.106524
    17  H    0.110907
    18  H    0.126562
    19  H    0.210755
    20  H    0.080854
    21  H    0.078501
    22  H    0.226174
    23  H    0.221590
 Sum of Mulliken charges =  -0.00000

 Dipole moment (field-independent basis, Debye):
    X=              0.1524    Y=              1.4151    Z=              0.3648  Tot=              1.4693
 Quadrupole moment (field-independent basis, Debye-Ang):
   XX=            -47.1643   YY=            -54.5402   ZZ=            -50.3312
   XY=             -2.7290   XZ=              3.1723   YZ=             -0.8340

  Exact polarizability:  95.853  -1.246  71.220  -0.781  -0.030  70.767
 Approx polarizability: 116.748  -0.792 105.885  -1.795  -1.529 102.790

                      1                      2                      3
                      A                      A                      A
 Frequencies --     86.0496                95.1588               110.3142
 Red. masses --      2.7472                 1.8444                 2.4207
 Frc consts  --      0.0120                 0.0098                 0.0174
 IR Inten    --      3.8357                 2.0424                 0.3026

                      4                      5                      6
                      A                      A                      A
 Frequencies --    163.7981               224.8829               266.0416
 Red. masses --      2.4290                 1.1379                 1.2286
 Frc consts  --      0.0384                 0.0339                 0.0512
 IR Inten    --      2.2282                 0.3097                 1.3750

                      7                      8                      9
                      A                      A                      A
 Frequencies --    286.4392               289.9539               315.0591
 Red. masses --      1.3187                 1.1177                 1.6708
 Frc consts  --      0.0637                 0.0554                 0.0977
 IR Inten    --     17.2308                12.2624                 0.5994

                     10                     11                     12
                      A                      A                      A
 Frequencies --    345.2666               358.1576               379.5351
 Red. masses --      2.5668                 2.2949                 3.0735
 Frc consts  --      0.1803                 0.1734                 0.2609
 IR Inten    --      4.6342                 4.6882                 5.3774

                     13                     14                     15
                      A                      A                      A
 Frequencies --    449.6327               475.9271               567.8889
 Red. masses --      2.8026                 2.4987                 2.6285
 Frc consts  --      0.3338                 0.3335                 0.4994
 IR Inten    --      3.4926                 8.5886                 8.8572

                     16                     17                     18
                      A                      A                      A
 Frequencies --    679.6228               740.8869               788.2980
 Red. masses --      1.4138                 2.4742                 1.6283
 Frc consts  --      0.3847                 0.8002                 0.5962
 IR Inten    --     82.6989                 3.5810                76.1611

                     19                     20                     21
                      A                      A                      A
 Frequencies --    864.8130               892.5606               917.4435
 Red. masses --      1.2744                 1.7261                 1.5232
 Frc consts  --      0.5616                 0.8102                 0.7554
 IR Inten    --    117.6271                 9.1947                10.8640

                     22                     23                     24
                      A                      A                      A
 Frequencies --    975.6334              1004.6778              1036.6860
 Red. masses --      1.5448                 1.2971                 2.2169
 Frc consts  --      0.8663                 0.7714                 1.4038
 IR Inten    --      2.8021                 3.1671                 6.2915

                     25                     26                     27
                      A                      A                      A
 Frequencies --   1079.9407              1096.8658              1125.6899
 Red. masses --      1.9915                 2.0613                 1.9456
 Frc consts  --      1.3684                 1.4612                 1.4526
 IR Inten    --     13.9329                18.8176                16.1024

                     28                     29                     30
                      A                      A                      A
 Frequencies --   1156.3769              1171.2494              1206.4477
 Red. masses --      1.4970                 2.9002                 2.3852
 Frc consts  --      1.1794                 2.3441                 2.0455
 IR Inten    --     21.9679                11.8797                42.8513

                     31                     32                     33
                      A                      A                      A
 Frequencies --   1216.6556              1231.7324              1282.0441
 Red. masses --      1.3546                 2.3887                 2.3178
 Frc consts  --      1.1814                 2.1352                 2.2446
 IR Inten    --     19.9654                92.6325                21.9408

                     34                     35                     36
                      A                      A                      A
 Frequencies --   1329.6598              1389.0071              1403.4740
 Red. masses --      1.4429                 1.2516                 1.2387
 Frc consts  --      1.5030                 1.4227                 1.4376
 IR Inten    --      5.2932                11.7287                 8.1796

                     37                     38                     39
                      A                      A                      A
 Frequencies --   1429.0049              1458.8987              1465.3197
 Red. masses --      1.2606                 1.1641                 1.2259
 Frc consts  --      1.5167                 1.4598                 1.5509
 IR Inten    --      5.1995                 8.7902                73.4654

                     40                     41                     42
                      A                      A                      A
 Frequencies --   1478.5993              1481.2960              1493.6056
 Red. masses --      1.0631                 1.0909                 1.0525
 Frc consts  --      1.3694                 1.4104                 1.3834
 IR Inten    --      5.2027                 8.2200                 1.0451

                     43                     44                     45
                      A                      A                      A
 Frequencies --   1499.8076              1505.7077              1514.6218
 Red. masses --      1.0998                 1.0648                 1.0957
 Frc consts  --      1.4576                 1.4223                 1.4810
 IR Inten    --      4.3372                 4.5326                16.3403

                     46                     47                     48
                      A                      A                      A
 Frequencies --   1533.9995              1542.9924              1637.0561
 Red. masses --      1.1578                 1.0869                 1.1009
 Frc consts  --      1.6052                 1.5246                 1.7382
 IR Inten    --      5.2282                 2.3806                32.0021

                     49                     50                     51
                      A                      A                      A
 Frequencies --   2925.0334              2941.0112              2950.3740
 Red. masses --      1.0572                 1.1007                 1.0598
 Frc consts  --      5.3291                 5.6094                 5.4354
 IR Inten    --     76.3665                78.4552                74.1414

                     52                     53                     54
                      A                      A                      A
 Frequencies --   3025.9280              3046.2630              3070.7455
 Red. masses --      1.0358                 1.0356                 1.0717
 Frc consts  --      5.5877                 5.6620                 5.9541
 IR Inten    --     22.0857                13.1844                38.1561

                     55                     56                     57
                      A                      A                      A
 Frequencies --   3095.5483              3101.1215              3108.5465
 Red. masses --      1.1004                 1.1010                 1.1020
 Frc consts  --      6.2124                 6.2385                 6.2741
 IR Inten    --     27.1670                15.3274                42.2339

                     58                     59                     60
                      A                      A                      A
 Frequencies --   3116.2156              3131.6619              3490.4119
 Red. masses --      1.1004                 1.1027                 1.0488
 Frc consts  --      6.2959                 6.3715                 7.5284
 IR Inten    --     34.9769                18.4894                 0.9281

                     61                     62                     63
                      A                      A                      A
 Frequencies --   3495.2030              3543.9838              3578.1937
 Red. masses --      1.0733                 1.0742                 1.0927
 Frc consts  --      7.7252                 7.9491                 8.2428
 IR Inten    --      1.1479                 1.5947                 0.2752

 - Thermochemistry -
 -------------------
 Temperature   298.150 Kelvin.  Pressure   1.00000 Atm.
 Atom     1 has atomic number  6 and mass  12.00000

 Molecular mass:   117.12660 amu.
 Principal axes and moments of inertia in atomic units:
                           1         2         3
     Eigenvalues --   481.114001698.026311747.40878
           X            0.99999  -0.00501   0.00177
           Y            0.00495   0.99956   0.02936
           Z           -0.00192  -0.02935   0.99957
 This molecule is an asymmetric top.
 Rotational symmetry number  1.
 Warning -- assumption of classical behavior for rotation
           may cause significant error
 Rotational temperatures (Kelvin)      0.18003     0.05101     0.04957
 Rotational constants (GHZ):           3.75117     1.06285     1.03281
 Zero-point vibrational energy     554259.9 (Joules/Mol)
                                  132.47130 (Kcal/Mol)
 Warning -- explicit consideration of  15 degrees of freedom as
           vibrations may cause significant error
 Vibrational temperatures:    123.81   136.91   158.72   235.67   323.56
          (Kelvin)            382.77   412.12   417.18   453.30   496.76
                              515.31   546.07   646.92   684.75   817.07
                              977.83  1065.97  1134.18  1244.27  1284.20
                             1320.00  1403.72  1445.51  1491.56  1553.79
                             1578.15  1619.62  1663.77  1685.17  1735.81
                             1750.50  1772.19  1844.58  1913.08  1998.47
                             2019.29  2056.02  2099.03  2108.27  2127.37
                             2131.25  2148.97  2157.89  2166.38  2179.20
                             2207.08  2220.02  2355.36  4208.47  4231.46
                             4244.93  4353.64  4382.89  4418.12  4453.80
                             4461.82  4472.51  4483.54  4505.76  5021.92
                             5028.82  5099.00  5148.22

 Zero-point correction=                           0.211106 (Hartree/Particle)
 Thermal correction to Energy=                    0.221606
 Thermal correction to Enthalpy=                  0.222550
 Thermal correction to Gibbs Free Energy=         0.176279
 Sum of electronic and zero-point Energies=           -363.611603
 Sum of electronic and thermal Energies=              -363.601104
 Sum of electronic and thermal Enthalpies=            -363.600160
 Sum of electronic and thermal Free Energies=         -363.646431

                     E (Thermal)             CV                S
                      KCal/Mol        Cal/Mol-Kelvin    Cal/Mol-Kelvin
 Total                  139.060             38.930             97.386
 Electronic               0.000              0.000              0.000
 Translational            0.889              2.981             40.189
 Rotational               0.889              2.981             28.747
 Vibrational            137.282             32.968             28.449
 Vibration     1          0.601              1.959              3.748
 Vibration     2          0.603              1.953              3.551
 Vibration     3          0.606              1.941              3.263
 Vibration     4          0.623              1.887              2.505
 Vibration     5          0.650              1.803              1.919
 Vibration     6          0.672              1.735              1.622
 Vibration     7          0.684              1.699              1.495
 Vibration     8          0.686              1.692              1.474
 Vibration     9          0.702              1.645              1.336
 Vibration    10          0.724              1.585              1.188
 Vibration    11          0.733              1.558              1.130
 Vibration    12          0.750              1.514              1.041
 Vibration    13          0.809              1.362              0.797
 Vibration    14          0.833              1.303              0.721
 Vibration    15          0.924              1.101              0.508

 Optimization completed.
    -- Stationary point found.
 Normal termination of Gaussian 16 at Tue Jun  1 14:13:39 2021.
