 Gaussian 16, Revision A.03,
 Gaussian 16:  ES64L-G16RevA.03 25-Dec-2016

 -----------------------------
 # opt freq b3lyp/6-31g(2df,p)
 -----------------------------

 -------------------
 Title Card Required
 -------------------
 Symbolic Z-matrix:
 Charge =  0 Multiplicity = 1

 SCF Done:  E(RB3LYP) =  -416.532909707     A.U. after   16 cycles
 SCF Done:  E(RB3LYP) =  -416.559090512     A.U. after   14 cycles
 SCF Done:  E(RB3LYP) =  -416.552004338     A.U. after   16 cycles
 SCF Done:  E(RB3LYP) =  -416.583449597     A.U. after   14 cycles
 SCF Done:  E(RB3LYP) =  -416.588816063     A.U. after   15 cycles
 SCF Done:  E(RB3LYP) =  -416.606114081     A.U. after   15 cycles
 SCF Done:  E(RB3LYP) =  -416.616326494     A.U. after   14 cycles
 SCF Done:  E(RB3LYP) =  -416.622878143     A.U. after   16 cycles
 SCF Done:  E(RB3LYP) =  -416.635404962     A.U. after   14 cycles
 SCF Done:  E(RB3LYP) =  -416.640058976     A.U. after   13 cycles
 SCF Done:  E(RB3LYP) =  -416.618998110     A.U. after   14 cycles
 SCF Done:  E(RB3LYP) =  -416.607825434     A.U. after   14 cycles
 SCF Done:  E(RB3LYP) =  -416.669254783     A.U. after   10 cycles
 SCF Done:  E(RB3LYP) =  -416.669296631     A.U. after   12 cycles
 SCF Done:  E(RB3LYP) =  -416.669496198     A.U. after   12 cycles
 SCF Done:  E(RB3LYP) =  -416.669505622     A.U. after   10 cycles
 SCF Done:  E(RB3LYP) =  -416.669507222     A.U. after    8 cycles
 SCF Done:  E(RB3LYP) =  -416.669507685     A.U. after    7 cycles
 SCF Done:  E(RB3LYP) =  -416.669507842     A.U. after    7 cycles
 Optimization completed.
    -- Stationary point found.
 Normal termination of Gaussian 16 at Mon May 31 16:38:54 2021.

 ----------------------------------------------------------------------
 #N Geom=AllCheck Guess=TCheck SCRF=Check GenChk RB3LYP/6-31G(2df,p) Fr
 eq
 ----------------------------------------------------------------------

 Structure from the checkpoint file:  "CNCpCpC1dNN1CN.chk"
 -------------------
 Title Card Required
 -------------------
 Charge =  0 Multiplicity = 1

                         Standard orientation:
 ---------------------------------------------------------------------
 Center     Atomic      Atomic             Coordinates (Angstroms)
 Number     Number       Type             X           Y           Z
 ---------------------------------------------------------------------
      1          6           0       -2.456686   -1.464771   -0.265319
      2          7           0       -1.151107   -0.874447    0.006206
      3          6           0       -1.069902    0.554529   -0.287698
      4          6           0       -1.838103    1.415074    0.722773
      5          6           0        0.364647    0.957201   -0.316648
      6          7           0        1.136916    1.911289   -0.101704
      7          7           0        1.594591    0.442396   -0.746118
      8          6           0        2.310449   -0.361343    0.275397
      9          7           0        1.761159   -1.707760    0.324452
     10          1           0       -2.383826   -2.550574   -0.162472
     11          1           0       -2.844349   -1.239518   -1.274773
     12          1           0       -3.196276   -1.115041    0.461677
     13          1           0       -0.435513   -1.358815   -0.529428
     14          1           0       -1.457010    0.785497   -1.302220
     15          1           0       -1.509804    1.183234    1.739134
     16          1           0       -2.912781    1.232553    0.651697
     17          1           0       -1.660454    2.475979    0.527520
     18          1           0        2.279712    0.176458    1.235825
     19          1           0        3.351965   -0.419289   -0.052068
     20          1           0        1.035454   -1.782848    1.028854
     21          1           0        2.479545   -2.392124    0.525365
 ---------------------------------------------------------------------

 SCF Done:  E(RB3LYP) =  -416.669507842     A.U. after    1 cycles

 The electronic state is 1-A.
 Alpha  occ. eigenvalues --  -14.35288 -14.35175 -14.32665 -14.31937 -10.25731
 Alpha  occ. eigenvalues --  -10.24288 -10.23215 -10.21035 -10.18840  -1.02031
 Alpha  occ. eigenvalues --   -0.91810  -0.89102  -0.77853  -0.75579  -0.69077
 Alpha  occ. eigenvalues --   -0.63047  -0.62269  -0.53999  -0.50697  -0.49615
 Alpha  occ. eigenvalues --   -0.47427  -0.46349  -0.45040  -0.42141  -0.41289
 Alpha  occ. eigenvalues --   -0.40884  -0.39263  -0.38487  -0.36651  -0.35787
 Alpha  occ. eigenvalues --   -0.32814  -0.28758  -0.26235  -0.23988  -0.22539
 Alpha virt. eigenvalues --   -0.00402   0.01866   0.08319   0.09260   0.11277
 Alpha virt. eigenvalues --    0.12504   0.12941   0.13951   0.14977   0.15446
 Alpha virt. eigenvalues --    0.16616   0.16944   0.18098   0.19413   0.20401

 Mulliken charges:
               1
     1  C   -0.317335
     2  N   -0.316361
     3  C   -0.107993
     4  C   -0.383304
     5  C    0.403936
     6  N   -0.278653
     7  N   -0.179393
     8  C   -0.106127
     9  N   -0.500860
    10  H    0.125743
    11  H    0.100731
    12  H    0.127241
    13  H    0.247505
    14  H    0.098378
    15  H    0.132633
    16  H    0.122704
    17  H    0.138824
    18  H    0.098950
    19  H    0.114315
    20  H    0.242545
    21  H    0.236519
 Sum of Mulliken charges =  -0.00000

 Dipole moment (field-independent basis, Debye):
    X=             -1.9136    Y=             -2.4024    Z=              1.2840  Tot=              3.3290
 Quadrupole moment (field-independent basis, Debye-Ang):
   XX=            -50.7400   YY=            -56.8118   ZZ=            -56.3568
   XY=             -6.5605   XZ=              4.5497   YZ=             -0.9241

  Exact polarizability:  95.016  -2.528  87.890   1.263   1.018  62.384
 Approx polarizability: 124.392  -3.505 139.278  -0.190   7.283  98.831

                      1                      2                      3
                      A                      A                      A
 Frequencies --     45.0848                81.0678               103.3638
 Red. masses --      3.0977                 2.1814                 2.1186
 Frc consts  --      0.0037                 0.0084                 0.0133
 IR Inten    --      8.8082                14.1702                 9.3079

                      4                      5                      6
                      A                      A                      A
 Frequencies --    131.9631               178.9265               204.5183
 Red. masses --      3.7181                 2.6589                 1.0356
 Frc consts  --      0.0381                 0.0502                 0.0255
 IR Inten    --      0.2091                 7.4795                 0.2328

                      7                      8                      9
                      A                      A                      A
 Frequencies --    231.3978               261.5531               280.6837
 Red. masses --      1.5871                 1.9070                 1.4492
 Frc consts  --      0.0501                 0.0769                 0.0673
 IR Inten    --     17.9548                 8.1021                57.3294

                     10                     11                     12
                      A                      A                      A
 Frequencies --    340.3489               375.9498               421.2136
 Red. masses --      3.6390                 4.2243                 3.4964
 Frc consts  --      0.2484                 0.3518                 0.3655
 IR Inten    --      3.4259                 5.9707                 0.4799

                     13                     14                     15
                      A                      A                      A
 Frequencies --    470.9528               508.2708               574.3523
 Red. masses --      4.8934                 3.7746                 4.2560
 Frc consts  --      0.6395                 0.5745                 0.8272
 IR Inten    --      0.3325                 6.3624                16.0887

                     16                     17                     18
                      A                      A                      A
 Frequencies --    657.9828               764.9744               802.6632
 Red. masses --      4.4150                 1.8803                 2.0155
 Frc consts  --      1.1262                 0.6483                 0.7651
 IR Inten    --     26.9557                80.6209                73.7581

                     19                     20                     21
                      A                      A                      A
 Frequencies --    850.6977               895.8428               942.2405
 Red. masses --      1.6673                 1.5975                 2.0118
 Frc consts  --      0.7109                 0.7554                 1.0524
 IR Inten    --     61.8816                11.3524                 2.6934

                     22                     23                     24
                      A                      A                      A
 Frequencies --   1015.4108              1038.6082              1076.1478
 Red. masses --      1.9707                 1.7396                 1.9206
 Frc consts  --      1.1972                 1.1056                 1.3105
 IR Inten    --     24.3538                 4.0026                 1.2199

                     25                     26                     27
                      A                      A                      A
 Frequencies --   1087.1377              1091.9193              1147.4124
 Red. masses --      2.1789                 2.6335                 1.5272
 Frc consts  --      1.5173                 1.8500                 1.1847
 IR Inten    --      9.7667                29.3920                 6.9917

                     28                     29                     30
                      A                      A                      A
 Frequencies --   1175.6726              1195.6964              1226.5524
 Red. masses --      2.3858                 3.0627                 1.7268
 Frc consts  --      1.9430                 2.5799                 1.5306
 IR Inten    --     29.2574                48.9922                12.6371

                     31                     32                     33
                      A                      A                      A
 Frequencies --   1248.3590              1335.0028              1340.8402
 Red. masses --      1.4476                 1.2918                 1.3048
 Frc consts  --      1.3292                 1.3565                 1.3821
 IR Inten    --     31.9977                26.5309                18.5533

                     34                     35                     36
                      A                      A                      A
 Frequencies --   1350.0558              1404.4168              1420.3910
 Red. masses --      1.6217                 1.2283                 1.2550
 Frc consts  --      1.7415                 1.4275                 1.4918
 IR Inten    --      0.3244                 7.2661                15.7284

                     37                     38                     39
                      A                      A                      A
 Frequencies --   1460.1706              1485.4735              1489.1003
 Red. masses --      1.1701                 1.0507                 1.0687
 Frc consts  --      1.4699                 1.3661                 1.3962
 IR Inten    --      0.7302                 7.0349                 5.9661

                     40                     41                     42
                      A                      A                      A
 Frequencies --   1501.0474              1506.5007              1511.4498
 Red. masses --      1.0448                 1.0827                 1.0709
 Frc consts  --      1.3870                 1.4477                 1.4414
 IR Inten    --      3.2262                 1.1941                 3.4906

                     43                     44                     45
                      A                      A                      A
 Frequencies --   1539.1048              1654.7030              1876.8794
 Red. masses --      1.1642                 1.0933                12.4316
 Frc consts  --      1.6248                 1.7637                25.8018
 IR Inten    --     19.5352                27.1207                22.9758

                     46                     47                     48
                      A                      A                      A
 Frequencies --   2882.3361              2949.6260              2975.3509
 Red. masses --      1.0780                 1.0590                 1.0696
 Frc consts  --      5.2765                 5.4284                 5.5789
 IR Inten    --     43.4677                79.6830                43.9073

                     49                     50                     51
                      A                      A                      A
 Frequencies --   3051.7582              3070.1421              3088.2657
 Red. masses --      1.0350                 1.0738                 1.0946
 Frc consts  --      5.6793                 5.9631                 6.1508
 IR Inten    --      8.6593                35.9765                33.3275

                     52                     53                     54
                      A                      A                      A
 Frequencies --   3113.9390              3128.4394              3132.9902
 Red. masses --      1.1013                 1.1019                 1.1030
 Frc consts  --      6.2917                 6.3543                 6.3792
 IR Inten    --     21.7698                15.1709                15.6007

                     55                     56                     57
                      A                      A                      A
 Frequencies --   3497.1903              3516.4209              3609.1589
 Red. masses --      1.0751                 1.0495                 1.0946
 Frc consts  --      7.7468                 7.6459                 8.4004
 IR Inten    --     27.7641                 3.9418                 6.1813

 - Thermochemistry -
 -------------------
 Temperature   298.150 Kelvin.  Pressure   1.00000 Atm.
 Atom     1 has atomic number  6 and mass  12.00000

 Molecular mass:   128.10620 amu.
 Principal axes and moments of inertia in atomic units:
                           1         2         3
     Eigenvalues --   825.935741435.004782046.62596
           X            0.99943  -0.03159   0.01175
           Y            0.03143   0.99942   0.01344
           Z           -0.01217  -0.01306   0.99984
 This molecule is an asymmetric top.
 Rotational symmetry number  1.
 Warning -- assumption of classical behavior for rotation
           may cause significant error
 Rotational temperatures (Kelvin)      0.10487     0.06036     0.04232
 Rotational constants (GHZ):           2.18509     1.25766     0.88181
 Zero-point vibrational energy     474425.3 (Joules/Mol)
                                  113.39037 (Kcal/Mol)
 Warning -- explicit consideration of  15 degrees of freedom as
           vibrations may cause significant error
 Vibrational temperatures:     64.87   116.64   148.72   189.87   257.44
          (Kelvin)            294.26   332.93   376.32   403.84   489.69
                              540.91   606.03   677.60   731.29   826.36
                              946.69  1100.63  1154.85  1223.96  1288.92
                             1355.67  1460.95  1494.33  1548.34  1564.15
                             1571.03  1650.87  1691.53  1720.34  1764.74
                             1796.11  1920.77  1929.17  1942.43  2020.64
                             2043.63  2100.86  2137.27  2142.48  2159.67
                             2167.52  2174.64  2214.43  2380.75  2700.41
                             4147.04  4243.85  4280.87  4390.80  4417.25
                             4443.33  4480.26  4501.13  4507.67  5031.68
                             5059.35  5192.77

 Zero-point correction=                           0.180699 (Hartree/Particle)
 Thermal correction to Energy=                    0.191537
 Thermal correction to Enthalpy=                  0.192482
 Thermal correction to Gibbs Free Energy=         0.144288
 Sum of electronic and zero-point Energies=           -416.488809
 Sum of electronic and thermal Energies=              -416.477970
 Sum of electronic and thermal Enthalpies=            -416.477026
 Sum of electronic and thermal Free Energies=         -416.525220

                     E (Thermal)             CV                S
                      KCal/Mol        Cal/Mol-Kelvin    Cal/Mol-Kelvin
 Total                  120.192             38.473            101.431
 Electronic               0.000              0.000              0.000
 Translational            0.889              2.981             40.456
 Rotational               0.889              2.981             29.274
 Vibrational            118.414             32.511             31.701
 Vibration     1          0.595              1.979              5.022
 Vibration     2          0.600              1.962              3.865
 Vibration     3          0.605              1.947              3.390
 Vibration     4          0.612              1.921              2.917
 Vibration     5          0.629              1.868              2.340
 Vibration     6          0.640              1.833              2.092
 Vibration     7          0.653              1.793              1.868
 Vibration     8          0.669              1.743              1.651
 Vibration     9          0.680              1.709              1.530
 Vibration    10          0.720              1.595              1.211
 Vibration    11          0.747              1.521              1.055
 Vibration    12          0.784              1.424              0.888
 Vibration    13          0.828              1.314              0.735
 Vibration    14          0.863              1.232              0.638
 Vibration    15          0.931              1.087              0.496

                           ! Non-Optimized Parameters !
 Normal termination of Gaussian 16 at Mon May 31 17:13:46 2021.
