 Gaussian 16, Revision A.03,
 Gaussian 16:  ES64L-G16RevA.03 25-Dec-2016

 -----------------------------
 # opt freq b3lyp/6-31g(2df,p)
 -----------------------------

 -------------------
 Title Card Required
 -------------------
 Symbolic Z-matrix:
 Charge =  0 Multiplicity = 1

 SCF Done:  E(RB3LYP) =  -432.745203591     A.U. after   14 cycles
 SCF Done:  E(RB3LYP) =  -432.752793904     A.U. after   12 cycles
 SCF Done:  E(RB3LYP) =  -432.754437785     A.U. after   11 cycles
 SCF Done:  E(RB3LYP) =  -432.754516408     A.U. after   10 cycles
 SCF Done:  E(RB3LYP) =  -432.754532487     A.U. after   10 cycles
 SCF Done:  E(RB3LYP) =  -432.754533550     A.U. after    8 cycles
 SCF Done:  E(RB3LYP) =  -432.754533668     A.U. after    6 cycles
 Optimization completed.
    -- Stationary point found.
 Normal termination of Gaussian 16 at Tue Jun  1 17:07:47 2021.

 ----------------------------------------------------------------------
 #N Geom=AllCheck Guess=TCheck SCRF=Check GenChk RB3LYP/6-31G(2df,p) Fr
 eq
 ----------------------------------------------------------------------

 Structure from the checkpoint file:  "CNCpdNpNpCpCNdN.chk"
 -------------------
 Title Card Required
 -------------------
 Charge =  0 Multiplicity = 1

                         Standard orientation:
 ---------------------------------------------------------------------
 Center     Atomic      Atomic             Coordinates (Angstroms)
 Number     Number       Type             X           Y           Z
 ---------------------------------------------------------------------
      1          6           0       -3.469657   -0.061980    0.000009
      2          7           0       -2.137940    0.494487    0.000002
      3          6           0       -1.014173   -0.304688   -0.000004
      4          7           0       -1.022726   -1.595118   -0.000010
      5          7           0        0.217041    0.328928   -0.000005
      6          6           0        0.448403    1.760361   -0.000006
      7          6           0        1.360487   -0.576417    0.000000
      8          7           0        2.612994    0.189613   -0.000008
      9          7           0        3.608748   -0.548748    0.000011
     10          1           0       -4.190126    0.758757    0.000021
     11          1           0       -3.659557   -0.678974    0.888572
     12          1           0       -3.659571   -0.678961   -0.888560
     13          1           0       -2.056410    1.491505    0.000028
     14          1           0       -1.968370   -1.961933   -0.000008
     15          1           0       -0.492127    2.309381   -0.000024
     16          1           0        1.012650    2.082640   -0.882249
     17          1           0        1.012624    2.082649    0.882250
     18          1           0        1.334183   -1.232850   -0.877471
     19          1           0        1.334185   -1.232839    0.877480
     20          1           0        4.435332    0.072839    0.000035
 ---------------------------------------------------------------------

 SCF Done:  E(RB3LYP) =  -432.754533668     A.U. after    1 cycles

 The electronic state is 1-A.
 Alpha  occ. eigenvalues --  -14.38515 -14.37265 -14.34061 -14.33963 -14.25742
 Alpha  occ. eigenvalues --  -10.26357 -10.22914 -10.22002 -10.21743  -1.03238
 Alpha  occ. eigenvalues --   -0.97568  -0.90508  -0.83319  -0.75614  -0.70777
 Alpha  occ. eigenvalues --   -0.68855  -0.60170  -0.55619  -0.54677  -0.49546
 Alpha  occ. eigenvalues --   -0.47914  -0.47770  -0.44283  -0.44048  -0.42214
 Alpha  occ. eigenvalues --   -0.41974  -0.40106  -0.39860  -0.38160  -0.36712
 Alpha  occ. eigenvalues --   -0.33374  -0.24896  -0.22725  -0.22669  -0.20192
 Alpha virt. eigenvalues --   -0.04701   0.06716   0.08228   0.09793   0.10535
 Alpha virt. eigenvalues --    0.12255   0.14224   0.15299   0.15463   0.16581
 Alpha virt. eigenvalues --    0.17682   0.17921   0.19482   0.20976   0.22297

 Mulliken charges:
               1
     1  C   -0.330074
     2  N   -0.356504
     3  C    0.478429
     4  N   -0.606087
     5  N   -0.145234
     6  C   -0.327961
     7  C   -0.032985
     8  N   -0.153454
     9  N   -0.264891
    10  H    0.123873
    11  H    0.131280
    12  H    0.131281
    13  H    0.238538
    14  H    0.202388
    15  H    0.108311
    16  H    0.132950
    17  H    0.132948
    18  H    0.145747
    19  H    0.145746
    20  H    0.245696
 Sum of Mulliken charges =  -0.00000

 Dipole moment (field-independent basis, Debye):
    X=             -1.5680    Y=              3.4654    Z=              0.0001  Tot=              3.8036
 Quadrupole moment (field-independent basis, Debye-Ang):
   XX=            -43.4611   YY=            -56.5167   ZZ=            -55.1372
   XY=              0.7804   XZ=              0.0000   YZ=              0.0001

  Exact polarizability: 114.380   2.460  79.710   0.000   0.000  50.948
 Approx polarizability: 138.684  -0.494 125.620   0.000   0.000  78.383

 ******    4 imaginary frequencies (negative Signs) ******

                      1                      2                      3
                      A                      A                      A
 Frequencies --   -397.6491              -175.4997              -116.6857
 Red. masses --      1.1391                 1.3804                 3.0113
 Frc consts  --      0.1061                 0.0250                 0.0242
 IR Inten    --     66.2268                 0.9795                 1.3273

                      4                      5                      6
                      A                      A                      A
 Frequencies --    -86.2049                50.5618               112.6193
 Red. masses --      7.7070                 2.9309                 2.4417
 Frc consts  --      0.0337                 0.0044                 0.0182
 IR Inten    --      2.2693                 0.8370                 1.1179

                      7                      8                      9
                      A                      A                      A
 Frequencies --    165.9085               171.8242               195.1879
 Red. masses --      4.1827                 1.6405                 1.3149
 Frc consts  --      0.0678                 0.0285                 0.0295
 IR Inten    --      2.6641                10.1171                 8.0711

                     10                     11                     12
                      A                      A                      A
 Frequencies --    294.3213               351.6232               394.8849
 Red. masses --      3.2146                 5.6796                 3.4959
 Frc consts  --      0.1641                 0.4137                 0.3212
 IR Inten    --      0.6641                 2.3825                 7.3302

                     13                     14                     15
                      A                      A                      A
 Frequencies --    457.4003               580.3226               664.7445
 Red. masses --      4.1391                 4.5089                 3.3957
 Frc consts  --      0.5102                 0.8947                 0.8841
 IR Inten    --     12.5759                19.8746                 7.5248

                     16                     17                     18
                      A                      A                      A
 Frequencies --    691.1463               733.6855               792.7060
 Red. masses --      1.4115                 3.2099                 1.1570
 Frc consts  --      0.3973                 1.0180                 0.4284
 IR Inten    --     12.1104                36.1001                19.6715

                     19                     20                     21
                      A                      A                      A
 Frequencies --    833.7197               946.6419              1020.7965
 Red. masses --      3.1495                 4.7136                 2.8571
 Frc consts  --      1.2898                 2.4887                 1.7541
 IR Inten    --      7.3886                11.8928                 2.4298

                     22                     23                     24
                      A                      A                      A
 Frequencies --   1067.8175              1096.8718              1147.4252
 Red. masses --      1.6152                 1.4307                 1.2830
 Frc consts  --      1.0851                 1.0141                 0.9952
 IR Inten    --     90.5478                31.7411                 1.7650

                     25                     26                     27
                      A                      A                      A
 Frequencies --   1161.9425              1163.0784              1193.9015
 Red. masses --      1.2694                 1.5954                 1.9803
 Frc consts  --      1.0098                 1.2716                 1.6631
 IR Inten    --      0.0497                48.2657                73.6075

                     28                     29                     30
                      A                      A                      A
 Frequencies --   1234.1685              1255.5847              1286.7489
 Red. masses --      1.0627                 1.7431                 5.6570
 Frc consts  --      0.9537                 1.6191                 5.5185
 IR Inten    --      1.3874                62.3772                56.7963

                     31                     32                     33
                      A                      A                      A
 Frequencies --   1362.5496              1397.2463              1452.7111
 Red. masses --      1.4058                 2.0565                 1.2399
 Frc consts  --      1.5377                 2.3655                 1.5417
 IR Inten    --      2.3266                55.2478                32.8500

                     34                     35                     36
                      A                      A                      A
 Frequencies --   1465.0234              1472.5012              1479.0766
 Red. masses --      1.0379                 1.1187                 1.0406
 Frc consts  --      1.3125                 1.4292                 1.3413
 IR Inten    --      3.7188                29.8183                 5.0286

                     37                     38                     39
                      A                      A                      A
 Frequencies --   1490.6640              1503.0222              1511.0371
 Red. masses --      1.2647                 1.1710                 1.1585
 Frc consts  --      1.6558                 1.5587                 1.5584
 IR Inten    --     29.4449                 4.1441                39.5583

                     40                     41                     42
                      A                      A                      A
 Frequencies --   1529.9761              1570.1783              1660.8531
 Red. masses --      1.0711                 2.1940                 7.3599
 Frc consts  --      1.4772                 3.1870                11.9615
 IR Inten    --      3.0420               354.1984                91.4251

                     43                     44                     45
                      A                      A                      A
 Frequencies --   1673.4639              3001.2817              3025.5287
 Red. masses --      6.8989                 1.0380                 1.0439
 Frc consts  --     11.3832                 5.5091                 5.6298
 IR Inten    --    182.0878                58.0612                56.0040

                     46                     47                     48
                      A                      A                      A
 Frequencies --   3033.4103              3043.5228              3064.3147
 Red. masses --      1.0526                 1.1034                 1.1056
 Frc consts  --      5.7064                 6.0218                 6.1168
 IR Inten    --     25.6320                35.4403                 8.6543

                     49                     50                     51
                      A                      A                      A
 Frequencies --   3068.8269              3120.4681              3144.3204
 Red. masses --      1.1035                 1.0962                 1.0928
 Frc consts  --      6.1228                 6.2891                 6.3658
 IR Inten    --     30.0354                19.3594                46.4572

                     52                     53                     54
                      A                      A                      A
 Frequencies --   3257.7295              3553.0924              3714.6882
 Red. masses --      1.0745                 1.0743                 1.0762
 Frc consts  --      6.7188                 7.9907                 8.7493
 IR Inten    --     27.0645                 2.1373                15.4605

 - Thermochemistry -
 -------------------
 Temperature   298.150 Kelvin.  Pressure   1.00000 Atm.
 Atom     1 has atomic number  6 and mass  12.00000

 Molecular mass:   129.10145 amu.
 Principal axes and moments of inertia in atomic units:
                           1         2         3
     Eigenvalues --   418.064502219.967342604.37568
           X            0.99999   0.00500  -0.00000
           Y           -0.00500   0.99999   0.00000
           Z            0.00000  -0.00000   1.00000
 This molecule is an asymmetric top.
 Rotational symmetry number  1.
 Rotational temperatures (Kelvin)      0.20718     0.03902     0.03326
 Rotational constants (GHZ):           4.31690     0.81296     0.69297
    4 imaginary frequencies ignored.
 Zero-point vibrational energy     440591.3 (Joules/Mol)
                                  105.30386 (Kcal/Mol)
 Warning -- explicit consideration of  10 degrees of freedom as
           vibrations may cause significant error
 Vibrational temperatures:     72.75   162.03   238.71   247.22   280.83
          (Kelvin)            423.46   505.91   568.15   658.10   834.95
                              956.42   994.41  1055.61  1140.53  1199.54
                             1362.01  1468.70  1536.35  1578.15  1650.89
                             1671.78  1673.41  1717.76  1775.69  1806.51
                             1851.34  1960.40  2010.33  2090.13  2107.84
                             2118.60  2128.06  2144.73  2162.51  2174.05
                             2201.29  2259.14  2389.60  2407.74  4318.17
                             4353.06  4364.40  4378.95  4408.87  4415.36
                             4489.66  4523.98  4687.15  5112.11  5344.61

 Zero-point correction=                           0.167812 (Hartree/Particle)
 Thermal correction to Energy=                    0.176319
 Thermal correction to Enthalpy=                  0.177263
 Thermal correction to Gibbs Free Energy=         0.133644
 Sum of electronic and zero-point Energies=           -432.586721
 Sum of electronic and thermal Energies=              -432.578215
 Sum of electronic and thermal Enthalpies=            -432.577270
 Sum of electronic and thermal Free Energies=         -432.620890

                     E (Thermal)             CV                S
                      KCal/Mol        Cal/Mol-Kelvin    Cal/Mol-Kelvin
 Total                  110.642             30.216             91.805
 Electronic               0.000              0.000              0.000
 Translational            0.889              2.981             40.479
 Rotational               0.889              2.981             29.270
 Vibrational            108.864             24.254             22.055
 Vibration     1          0.595              1.977              4.795
 Vibration     2          0.607              1.939              3.223
 Vibration     3          0.624              1.884              2.481
 Vibration     4          0.626              1.877              2.415
 Vibration     5          0.636              1.847              2.178
 Vibration     6          0.689              1.684              1.449
 Vibration     7          0.728              1.572              1.159
 Vibration     8          0.762              1.481              0.982
 Vibration     9          0.816              1.345              0.774
 Vibration    10          0.937              1.074              0.485

 Optimization completed.
    -- Stationary point found.
 Normal termination of Gaussian 16 at Tue Jun  1 17:33:28 2021.
