 Gaussian 16, Revision A.03,
 Gaussian 16:  ES64L-G16RevA.03 25-Dec-2016

 -----------------------------
 # opt freq b3lyp/6-31g(2df,p)
 -----------------------------

 -------------------
 Title Card Required
 -------------------
 Symbolic Z-matrix:
 Charge =  0 Multiplicity = 1

 SCF Done:  E(RB3LYP) =  -266.710967200     A.U. after   13 cycles
 SCF Done:  E(RB3LYP) =  -266.733850134     A.U. after   12 cycles
 SCF Done:  E(RB3LYP) =  -266.734617995     A.U. after   11 cycles
 SCF Done:  E(RB3LYP) =  -266.734859966     A.U. after   11 cycles
 SCF Done:  E(RB3LYP) =  -266.734902058     A.U. after   10 cycles
 SCF Done:  E(RB3LYP) =  -266.734906754     A.U. after   10 cycles
 SCF Done:  E(RB3LYP) =  -266.734911099     A.U. after    8 cycles
 SCF Done:  E(RB3LYP) =  -266.734911545     A.U. after    7 cycles
 SCF Done:  E(RB3LYP) =  -266.734911652     A.U. after    7 cycles
 SCF Done:  E(RB3LYP) =  -266.734911701     A.U. after    7 cycles
 Optimization completed.
    -- Stationary point found.
 Normal termination of Gaussian 16 at Mon May 31 23:27:29 2021.

 ----------------------------------------------------------------------
 #N Geom=AllCheck Guess=TCheck SCRF=Check GenChk RB3LYP/6-31G(2df,p) Fr
 eq
 ----------------------------------------------------------------------

 Structure from the checkpoint file:  "CNCpCpCtN.chk"
 -------------------
 Title Card Required
 -------------------
 Charge =  0 Multiplicity = 1

                         Standard orientation:
 ---------------------------------------------------------------------
 Center     Atomic      Atomic             Coordinates (Angstroms)
 Number     Number       Type             X           Y           Z
 ---------------------------------------------------------------------
      1          6           0        2.213465   -0.502238    0.081122
      2          7           0        0.836868   -0.653303   -0.379648
      3          6           0       -0.118602    0.204849    0.327550
      4          6           0       -0.022976    1.667863   -0.140088
      5          6           0       -1.476823   -0.310157    0.097591
      6          7           0       -2.543750   -0.720331   -0.069888
      7          1           0        2.830575   -1.266343   -0.398008
      8          1           0        2.333208   -0.595741    1.175232
      9          1           0        2.611249    0.472301   -0.217387
     10          1           0        0.551660   -1.620392   -0.275143
     11          1           0        0.039946    0.183738    1.423251
     12          1           0       -0.184399    1.725870   -1.218608
     13          1           0        0.965175    2.072423    0.090752
     14          1           0       -0.769622    2.281676    0.369605
 ---------------------------------------------------------------------

 SCF Done:  E(RB3LYP) =  -266.734911701     A.U. after    1 cycles

 The electronic state is 1-A.
 Alpha  occ. eigenvalues --  -14.33721 -14.32981 -10.26350 -10.21906 -10.21734
 Alpha  occ. eigenvalues --  -10.19698  -0.93378  -0.89629  -0.78155  -0.69590
 Alpha  occ. eigenvalues --   -0.63731  -0.54248  -0.50402  -0.46229  -0.42673
 Alpha  occ. eigenvalues --   -0.42293  -0.40222  -0.38864  -0.37876  -0.35417
 Alpha  occ. eigenvalues --   -0.33152  -0.32536  -0.24579
 Alpha virt. eigenvalues --    0.02771   0.03464   0.07012   0.11087   0.12362
 Alpha virt. eigenvalues --    0.12666   0.14966   0.15878   0.17066   0.18692
 Alpha virt. eigenvalues --    0.19728   0.20367   0.23008   0.25828   0.33233

 Mulliken charges:
               1
     1  C   -0.321520
     2  N   -0.291672
     3  C   -0.074202
     4  C   -0.374935
     5  C    0.263519
     6  N   -0.317613
     7  H    0.131395
     8  H    0.101615
     9  H    0.132661
    10  H    0.236629
    11  H    0.104912
    12  H    0.146322
    13  H    0.127075
    14  H    0.135814
 Sum of Mulliken charges =  -0.00000

 Dipole moment (field-independent basis, Debye):
    X=              3.6300    Y=              0.9309    Z=              1.1946  Tot=              3.9332
 Quadrupole moment (field-independent basis, Debye-Ang):
   XX=            -45.2463   YY=            -34.4043   ZZ=            -37.6006
   XY=             -3.9832   XZ=             -0.2008   YZ=             -0.3147

  Exact polarizability:  67.788   2.452  51.744   1.309   1.061  43.225
 Approx polarizability:  95.805   8.756  71.739   3.589   3.275  65.173

                      1                      2                      3
                      A                      A                      A
 Frequencies --     79.5243               172.2562               207.7192
 Red. masses --      2.1293                 4.1967                 1.9172
 Frc consts  --      0.0079                 0.0734                 0.0487
 IR Inten    --      2.3126                 5.6287                 0.9235

                      4                      5                      6
                      A                      A                      A
 Frequencies --    213.2180               266.6820               357.0063
 Red. masses --      1.0813                 1.5849                 3.5060
 Frc consts  --      0.0290                 0.0664                 0.2633
 IR Inten    --      1.0178                 1.2111                 3.5270

                      7                      8                      9
                      A                      A                      A
 Frequencies --    411.8458               558.2971               570.0622
 Red. masses --      2.6806                 4.7635                 5.8103
 Frc consts  --      0.2679                 0.8748                 1.1125
 IR Inten    --      7.7688                 8.0254                 0.0762

                     10                     11                     12
                      A                      A                      A
 Frequencies --    758.1035               821.4274               913.8225
 Red. masses --      1.4694                 2.0970                 2.1621
 Frc consts  --      0.4976                 0.8336                 1.0638
 IR Inten    --     81.2400                 4.8664                 1.2113

                     13                     14                     15
                      A                      A                      A
 Frequencies --   1029.5611              1080.7633              1090.0812
 Red. masses --      1.8554                 1.6521                 2.2565
 Frc consts  --      1.1587                 1.1370                 1.5798
 IR Inten    --      3.9789                 5.9218                 5.7000

                     16                     17                     18
                      A                      A                      A
 Frequencies --   1148.0324              1173.9684              1208.3847
 Red. masses --      1.5057                 2.5040                 1.6729
 Frc consts  --      1.1692                 2.0333                 1.4393
 IR Inten    --      6.4119                40.0159                 0.8246

                     19                     20                     21
                      A                      A                      A
 Frequencies --   1341.8279              1351.4878              1403.6803
 Red. masses --      1.2830                 1.4540                 1.2157
 Frc consts  --      1.3610                 1.5648                 1.4112
 IR Inten    --     23.3298                15.6760                 5.5981

                     22                     23                     24
                      A                      A                      A
 Frequencies --   1459.4309              1484.1296              1485.2972
 Red. masses --      1.1655                 1.1168                 1.0534
 Frc consts  --      1.4626                 1.4493                 1.3692
 IR Inten    --      0.2745                11.7649                 3.7586

                     25                     26                     27
                      A                      A                      A
 Frequencies --   1498.3819              1505.4989              1521.4663
 Red. masses --      1.0433                 1.1065                 1.0846
 Frc consts  --      1.3800                 1.4776                 1.4792
 IR Inten    --      3.2790                 0.6898                14.5766

                     28                     29                     30
                      A                      A                      A
 Frequencies --   2363.1408              2911.3905              2949.0464
 Red. masses --     12.6682                 1.0792                 1.0592
 Frc consts  --     41.6815                 5.3896                 5.4276
 IR Inten    --      3.9753                41.3005                73.5098

                     31                     32                     33
                      A                      A                      A
 Frequencies --   3055.8134              3075.1346              3118.6683
 Red. masses --      1.0348                 1.0733                 1.1014
 Frc consts  --      5.6930                 5.9802                 6.3113
 IR Inten    --      7.4555                31.0878                20.8587

                     34                     35                     36
                      A                      A                      A
 Frequencies --   3132.5766              3143.2273              3537.7139
 Red. masses --      1.1020                 1.1037                 1.0747
 Frc consts  --      6.3717                 6.4249                 7.9246
 IR Inten    --     16.0793                11.4044                 2.4143

 - Thermochemistry -
 -------------------
 Temperature   298.150 Kelvin.  Pressure   1.00000 Atm.
 Atom     1 has atomic number  6 and mass  12.00000

 Molecular mass:    84.06875 amu.
 Principal axes and moments of inertia in atomic units:
                           1         2         3
     Eigenvalues --   277.29436 772.51607 984.53709
           X            0.99949  -0.03129   0.00563
           Y            0.03135   0.99945  -0.01088
           Z           -0.00529   0.01105   0.99993
 This molecule is an asymmetric top.
 Rotational symmetry number  1.
 Rotational temperatures (Kelvin)      0.31235     0.11212     0.08797
 Rotational constants (GHZ):           6.50839     2.33619     1.83309
 Zero-point vibrational energy     313413.6 (Joules/Mol)
                                   74.90766 (Kcal/Mol)
 Warning -- explicit consideration of   9 degrees of freedom as
           vibrations may cause significant error
 Vibrational temperatures:    114.42   247.84   298.86   306.77   383.70
          (Kelvin)            513.65   592.55   803.26   820.19  1090.74
                             1181.85  1314.79  1481.31  1554.98  1568.38
                             1651.76  1689.08  1738.60  1930.59  1944.49
                             2019.58  2099.80  2135.33  2137.01  2155.84
                             2166.08  2189.05  3400.03  4188.84  4243.02
                             4396.63  4424.43  4487.07  4507.08  4522.40
                             5089.98

 Zero-point correction=                           0.119373 (Hartree/Particle)
 Thermal correction to Energy=                    0.126564
 Thermal correction to Enthalpy=                  0.127508
 Thermal correction to Gibbs Free Energy=         0.088452
 Sum of electronic and zero-point Energies=           -266.615539
 Sum of electronic and thermal Energies=              -266.608348
 Sum of electronic and thermal Enthalpies=            -266.607403
 Sum of electronic and thermal Free Energies=         -266.646460

                     E (Thermal)             CV                S
                      KCal/Mol        Cal/Mol-Kelvin    Cal/Mol-Kelvin
 Total                   79.420             24.647             82.201
 Electronic               0.000              0.000              0.000
 Translational            0.889              2.981             39.201
 Rotational               0.889              2.981             26.847
 Vibrational             77.643             18.686             16.153
 Vibration     1          0.600              1.963              3.903
 Vibration     2          0.626              1.877              2.411
 Vibration     3          0.641              1.829              2.064
 Vibration     4          0.644              1.821              2.016
 Vibration     5          0.672              1.734              1.618
 Vibration     6          0.732              1.561              1.135
 Vibration     7          0.776              1.445              0.920
 Vibration     8          0.914              1.122              0.527
 Vibration     9          0.926              1.096              0.504

 Optimization completed.
    -- Stationary point found.
 Normal termination of Gaussian 16 at Mon May 31 23:40:01 2021.
