 Gaussian 16, Revision A.03,
 Gaussian 16:  ES64L-G16RevA.03 25-Dec-2016

 -----------------------------
 # opt freq b3lyp/6-31g(2df,p)
 -----------------------------

 -------------------
 Title Card Required
 -------------------
 Symbolic Z-matrix:
 Charge =  0 Multiplicity = 1

 SCF Done:  E(RB3LYP) =  -374.959757782     A.U. after   14 cycles
 SCF Done:  E(RB3LYP) =  -374.992903234     A.U. after   14 cycles
 SCF Done:  E(RB3LYP) =  -374.994181860     A.U. after   13 cycles
 SCF Done:  E(RB3LYP) =  -374.994632141     A.U. after   12 cycles
 SCF Done:  E(RB3LYP) =  -374.994669805     A.U. after   10 cycles
 SCF Done:  E(RB3LYP) =  -374.994677325     A.U. after   10 cycles
 SCF Done:  E(RB3LYP) =  -374.994679297     A.U. after    9 cycles
 SCF Done:  E(RB3LYP) =  -374.994680180     A.U. after    8 cycles
 SCF Done:  E(RB3LYP) =  -374.994680310     A.U. after    8 cycles
 Optimization completed.
    -- Stationary point found.
 Normal termination of Gaussian 16 at Tue Jun  1 17:30:33 2021.

 ----------------------------------------------------------------------
 #N Geom=AllCheck Guess=TCheck SCRF=Check GenChk RB3LYP/6-31G(2df,p) Fr
 eq
 ----------------------------------------------------------------------

 Structure from the checkpoint file:  "CNCpNppCtNpCtN.chk"
 -------------------
 Title Card Required
 -------------------
 Charge =  0 Multiplicity = 1

                         Standard orientation:
 ---------------------------------------------------------------------
 Center     Atomic      Atomic             Coordinates (Angstroms)
 Number     Number       Type             X           Y           Z
 ---------------------------------------------------------------------
      1          6           0        2.068272   -0.958640   -0.371177
      2          7           0        0.637240   -0.934825   -0.661501
      3          6           0       -0.172599   -0.064252    0.188141
      4          7           0       -0.143444   -0.217660    1.643764
      5          6           0        0.224958    1.341511   -0.097851
      6          7           0        0.575864    2.420753   -0.306602
      7          6           0       -1.581836   -0.259324   -0.239222
      8          7           0       -2.670510   -0.470983   -0.557292
      9          1           0        2.550361   -1.634523   -1.080461
     10          1           0        2.321918   -1.291089    0.647392
     11          1           0        2.487539    0.040241   -0.523967
     12          1           0        0.238052   -1.866956   -0.661372
     13          1           0        0.783246   -0.021561    2.006803
     14          1           0       -0.407940   -1.162882    1.903678
 ---------------------------------------------------------------------

 SCF Done:  E(RB3LYP) =  -374.994680310     A.U. after    1 cycles

 The electronic state is 1-A.
 Alpha  occ. eigenvalues --  -14.36414 -14.36307 -14.35640 -14.35492 -10.34900
 Alpha  occ. eigenvalues --  -10.24514 -10.24382 -10.23526  -0.99515  -0.92270
 Alpha  occ. eigenvalues --   -0.92019  -0.90246  -0.77338  -0.69269  -0.62061
 Alpha  occ. eigenvalues --   -0.54409  -0.52776  -0.50317  -0.47016  -0.44320
 Alpha  occ. eigenvalues --   -0.41439  -0.38689  -0.37983  -0.36590  -0.35842
 Alpha  occ. eigenvalues --   -0.35522  -0.34828  -0.31640  -0.26537
 Alpha virt. eigenvalues --   -0.02511  -0.00180   0.03121   0.04259   0.05391
 Alpha virt. eigenvalues --    0.08523   0.10833   0.11609   0.13401   0.14924
 Alpha virt. eigenvalues --    0.15323   0.18549   0.20287   0.21110   0.26788

 Mulliken charges:
               1
     1  C   -0.348503
     2  N   -0.296422
     3  C   -0.050967
     4  N   -0.514058
     5  C    0.360428
     6  N   -0.324241
     7  C    0.334788
     8  N   -0.315644
     9  H    0.144830
    10  H    0.104030
    11  H    0.160932
    12  H    0.240367
    13  H    0.256271
    14  H    0.248190
 Sum of Mulliken charges =  -0.00000

 Dipole moment (field-independent basis, Debye):
    X=              3.4798    Y=             -4.1401    Z=              2.0137  Tot=              5.7710
 Quadrupole moment (field-independent basis, Debye-Ang):
   XX=            -52.9335   YY=            -50.0142   ZZ=            -46.2137
   XY=             -4.0865   XZ=             -0.3321   YZ=             -0.8887

  Exact polarizability:  71.646   3.959  64.155   2.025  -1.104  51.344
 Approx polarizability: 106.320  13.531 101.016   5.493  -2.160  77.300

                      1                      2                      3
                      A                      A                      A
 Frequencies --    108.4671               132.2182               162.6488
 Red. masses --      2.4728                10.1511                 3.7652
 Frc consts  --      0.0171                 0.1046                 0.0587
 IR Inten    --      1.0967                 8.5609                 1.0517

                      4                      5                      6
                      A                      A                      A
 Frequencies --    189.6513               226.9962               234.4021
 Red. masses --      2.2389                 1.8876                 1.9750
 Frc consts  --      0.0474                 0.0573                 0.0639
 IR Inten    --      2.9698                 1.6236                 7.3805

                      7                      8                      9
                      A                      A                      A
 Frequencies --    296.4288               351.6574               440.8566
 Red. masses --      1.7304                 2.8340                 3.4003
 Frc consts  --      0.0896                 0.2065                 0.3894
 IR Inten    --     19.8159                26.1702                10.6835

                     10                     11                     12
                      A                      A                      A
 Frequencies --    514.0069               539.0736               560.3182
 Red. masses --      6.1451                 7.8536                12.0499
 Frc consts  --      0.9566                 1.3447                 2.2290
 IR Inten    --      3.7167                 1.0977                 1.4602

                     13                     14                     15
                      A                      A                      A
 Frequencies --    599.1176               678.3135               726.6301
 Red. masses --      3.8156                 2.2426                 2.7336
 Frc consts  --      0.8069                 0.6079                 0.8504
 IR Inten    --     77.6752                76.2955                21.7607

                     16                     17                     18
                      A                      A                      A
 Frequencies --    773.7833               970.3883              1004.9704
 Red. masses --      1.6006                 2.4420                 2.8207
 Frc consts  --      0.5646                 1.3548                 1.6785
 IR Inten    --    162.5419                16.1290                52.4615

                     19                     20                     21
                      A                      A                      A
 Frequencies --   1111.0878              1143.1822              1166.9970
 Red. masses --      4.0148                 1.9535                 2.3981
 Frc consts  --      2.9202                 1.5041                 1.9242
 IR Inten    --     26.0967                61.3181                72.6674

                     22                     23                     24
                      A                      A                      A
 Frequencies --   1175.9408              1323.2952              1455.6155
 Red. masses --      1.6223                 1.9075                 1.1595
 Frc consts  --      1.3218                 1.9680                 1.4475
 IR Inten    --     15.9702                17.4363                 1.6805

                     25                     26                     27
                      A                      A                      A
 Frequencies --   1487.6843              1493.8934              1522.1832
 Red. masses --      1.2238                 1.0666                 1.0665
 Frc consts  --      1.5959                 1.4025                 1.4559
 IR Inten    --     18.7742                 4.4954                12.3318

                     28                     29                     30
                      A                      A                      A
 Frequencies --   1644.8793              2372.4064              2377.9213
 Red. masses --      1.0932                12.7050                12.6911
 Frc consts  --      1.7427                42.1313                42.2809
 IR Inten    --     23.6200                 0.8055                 0.8057

                     31                     32                     33
                      A                      A                      A
 Frequencies --   2982.6608              3085.9636              3131.1209
 Red. masses --      1.0541                 1.0800                 1.1021
 Frc consts  --      5.5251                 6.0600                 6.3659
 IR Inten    --     60.3946                14.8787                 9.9517

                     34                     35                     36
                      A                      A                      A
 Frequencies --   3505.3502              3542.6335              3603.3969
 Red. masses --      1.0477                 1.0748                 1.0953
 Frc consts  --      7.5849                 7.9475                 8.3794
 IR Inten    --      7.2178                 7.0490                 8.6413

 - Thermochemistry -
 -------------------
 Temperature   298.150 Kelvin.  Pressure   1.00000 Atm.
 Atom     1 has atomic number  6 and mass  12.00000

 Molecular mass:   110.05925 amu.
 Principal axes and moments of inertia in atomic units:
                           1         2         3
     Eigenvalues --   721.99121 980.490441256.32547
           X            0.99459  -0.10322  -0.01161
           Y            0.10320   0.99466  -0.00189
           Z            0.01174   0.00068   0.99993
 This molecule is an asymmetric top.
 Rotational symmetry number  1.
 Warning -- assumption of classical behavior for rotation
           may cause significant error
 Rotational temperatures (Kelvin)      0.11997     0.08834     0.06894
 Rotational constants (GHZ):           2.49967     1.84065     1.43652
 Zero-point vibrational energy     278946.1 (Joules/Mol)
                                   66.66971 (Kcal/Mol)
 Warning -- explicit consideration of  13 degrees of freedom as
           vibrations may cause significant error
 Vibrational temperatures:    156.06   190.23   234.02   272.87   326.60
          (Kelvin)            337.25   426.49   505.96   634.29   739.54
                              775.61   806.17   862.00   975.94  1045.46
                             1113.30  1396.17  1445.93  1598.61  1644.78
                             1679.05  1691.92  1903.93  2094.31  2140.45
                             2149.38  2190.08  2366.61  3413.36  3421.30
                             4291.38  4440.01  4504.98  5043.42  5097.06
                             5184.48

 Zero-point correction=                           0.106245 (Hartree/Particle)
 Thermal correction to Energy=                    0.115012
 Thermal correction to Enthalpy=                  0.115956
 Thermal correction to Gibbs Free Energy=         0.073244
 Sum of electronic and zero-point Energies=           -374.888435
 Sum of electronic and thermal Energies=              -374.879668
 Sum of electronic and thermal Enthalpies=            -374.878724
 Sum of electronic and thermal Free Energies=         -374.921436

                     E (Thermal)             CV                S
                      KCal/Mol        Cal/Mol-Kelvin    Cal/Mol-Kelvin
 Total                   72.171             30.914             89.895
 Electronic               0.000              0.000              0.000
 Translational            0.889              2.981             40.004
 Rotational               0.889              2.981             28.277
 Vibrational             70.394             24.952             21.614
 Vibration     1          0.606              1.942              3.296
 Vibration     2          0.612              1.921              2.914
 Vibration     3          0.623              1.888              2.519
 Vibration     4          0.633              1.854              2.231
 Vibration     5          0.651              1.800              1.903
 Vibration     6          0.654              1.788              1.845
 Vibration     7          0.690              1.680              1.437
 Vibration     8          0.728              1.572              1.159
 Vibration     9          0.801              1.381              0.824
 Vibration    10          0.869              1.219              0.624
 Vibration    11          0.894              1.164              0.567
 Vibration    12          0.916              1.117              0.523
 Vibration    13          0.957              1.034              0.451

                           ! Non-Optimized Parameters !
 Normal termination of Gaussian 16 at Tue Jun  1 17:47:22 2021.
