 Gaussian 16, Revision A.03,
 Gaussian 16:  ES64L-G16RevA.03 25-Dec-2016

 -----------------------------
 # opt freq b3lyp/6-31g(2df,p)
 -----------------------------

 -------------------
 Title Card Required
 -------------------
 Symbolic Z-matrix:
 Charge =  0 Multiplicity = 1

 SCF Done:  E(RB3LYP) =  -469.673297960     A.U. after   14 cycles
 SCF Done:  E(RB3LYP) =  -469.680488230     A.U. after   12 cycles
 SCF Done:  E(RB3LYP) =  -469.680940654     A.U. after   11 cycles
 SCF Done:  E(RB3LYP) =  -469.680973751     A.U. after    9 cycles
 SCF Done:  E(RB3LYP) =  -469.680975833     A.U. after    9 cycles
 SCF Done:  E(RB3LYP) =  -469.680976321     A.U. after    8 cycles
 Optimization completed.
    -- Stationary point found.
 Normal termination of Gaussian 16 at Tue Jun  1 02:43:22 2021.

 ----------------------------------------------------------------------
 #N Geom=AllCheck Guess=TCheck SCRF=Check GenChk RB3LYP/6-31G(2df,p) Fr
 eq
 ----------------------------------------------------------------------

 Structure from the checkpoint file:  "CNCpdNpNCNdCCtN.chk"
 -------------------
 Title Card Required
 -------------------
 Charge =  0 Multiplicity = 1

                         Standard orientation:
 ---------------------------------------------------------------------
 Center     Atomic      Atomic             Coordinates (Angstroms)
 Number     Number       Type             X           Y           Z
 ---------------------------------------------------------------------
      1          6           0        4.263173   -0.579675   -0.000000
      2          7           0        2.845219   -0.848280   -0.000001
      3          6           0        1.901342    0.155856   -0.000001
      4          7           0        2.115697    1.425170    0.000004
      5          7           0        0.602534   -0.290092   -0.000006
      6          6           0       -0.494632    0.642028    0.000004
      7          7           0       -1.721852   -0.135739    0.000010
      8          6           0       -2.821319    0.494223   -0.000010
      9          6           0       -4.071202   -0.218729   -0.000001
     10          7           0       -5.101713   -0.744413    0.000004
     11          1           0        4.800268   -1.530154   -0.000004
     12          1           0        4.574656   -0.015011    0.888855
     13          1           0        4.574657   -0.015002   -0.888851
     14          1           0        2.544085   -1.806116   -0.000017
     15          1           0        3.108610    1.636749    0.000004
     16          1           0        0.360909   -1.264631    0.000011
     17          1           0       -0.447622    1.298899   -0.881388
     18          1           0       -0.447614    1.298892    0.881400
     19          1           0       -2.911321    1.587626   -0.000033
 ---------------------------------------------------------------------

 SCF Done:  E(RB3LYP) =  -469.680976321     A.U. after    1 cycles

 The electronic state is 1-A.
 Alpha  occ. eigenvalues --  -14.37154 -14.34984 -14.34854 -14.34070 -14.26760
 Alpha  occ. eigenvalues --  -10.28223 -10.27189 -10.25598 -10.23600 -10.22569
 Alpha  occ. eigenvalues --   -0.98962  -0.96345  -0.91675  -0.89665  -0.83695
 Alpha  occ. eigenvalues --   -0.75021  -0.70296  -0.64695  -0.59699  -0.56471
 Alpha  occ. eigenvalues --   -0.54175  -0.49746  -0.49110  -0.48196  -0.44948
 Alpha  occ. eigenvalues --   -0.44385  -0.42676  -0.40250  -0.39777  -0.37620
 Alpha  occ. eigenvalues --   -0.36440  -0.34928  -0.31408  -0.30170  -0.25529
 Alpha  occ. eigenvalues --   -0.23951  -0.21708
 Alpha virt. eigenvalues --   -0.07876   0.01742   0.05917   0.07390   0.09374
 Alpha virt. eigenvalues --    0.09721   0.10466   0.12247   0.12545   0.14742
 Alpha virt. eigenvalues --    0.16792   0.16912   0.18209   0.19033   0.20119

 Mulliken charges:
               1
     1  C   -0.329992
     2  N   -0.348731
     3  C    0.478724
     4  N   -0.593337
     5  N   -0.359981
     6  C   -0.063123
     7  N   -0.178140
     8  C   -0.080028
     9  C    0.277378
    10  N   -0.299517
    11  H    0.128255
    12  H    0.132368
    13  H    0.132368
    14  H    0.237832
    15  H    0.204861
    16  H    0.242105
    17  H    0.138315
    18  H    0.138316
    19  H    0.142328
 Sum of Mulliken charges =  -0.00000

 Dipole moment (field-independent basis, Debye):
    X=              3.9254    Y=             -0.7772    Z=             -0.0000  Tot=              4.0016
 Quadrupole moment (field-independent basis, Debye-Ang):
   XX=            -69.0838   YY=            -57.2717   ZZ=            -59.5017
   XY=            -16.0125   XZ=              0.0001   YZ=              0.0000

  Exact polarizability: 142.600   4.960  79.038   0.000  -0.000  50.375
 Approx polarizability: 181.271  12.636 130.159   0.000  -0.000  77.088

 ******    3 imaginary frequencies (negative Signs) ******

                      1                      2                      3
                      A                      A                      A
 Frequencies --   -409.2768              -210.0180               -52.1581
 Red. masses --      1.2289                 1.7184                 2.9854
 Frc consts  --      0.1213                 0.0447                 0.0048
 IR Inten    --      0.0173               104.2791                23.0896

                      4                      5                      6
                      A                      A                      A
 Frequencies --     25.5801                73.7088               111.1730
 Red. masses --      3.5415                 5.8350                 2.6356
 Frc consts  --      0.0014                 0.0187                 0.0192
 IR Inten    --     14.3572                 6.5041                12.3820

                      7                      8                      9
                      A                      A                      A
 Frequencies --    140.7181               169.6472               171.4592
 Red. masses --      1.3329                 2.2404                 6.1060
 Frc consts  --      0.0156                 0.0380                 0.1058
 IR Inten    --      1.2660                 6.8081                 5.8186

                     10                     11                     12
                      A                      A                      A
 Frequencies --    199.5977               282.5209               319.6551
 Red. masses --      1.8973                 4.4732                 5.2412
 Frc consts  --      0.0445                 0.2104                 0.3155
 IR Inten    --     13.1151                 3.5512                 4.5343

                     13                     14                     15
                      A                      A                      A
 Frequencies --    365.1567               486.1832               540.5380
 Red. masses --      5.1599                 5.0681                 4.2134
 Frc consts  --      0.4054                 0.7058                 0.7253
 IR Inten    --     11.4231                 0.6362                 4.1132

                     16                     17                     18
                      A                      A                      A
 Frequencies --    596.9367               699.1319               724.6763
 Red. masses --      6.6055                 3.2431                 2.8959
 Frc consts  --      1.3868                 0.9340                 0.8960
 IR Inten    --      2.2566                18.1586                 3.5180

                     19                     20                     21
                      A                      A                      A
 Frequencies --    742.1918               938.3729               961.3780
 Red. masses --      1.4591                 1.5644                 4.1105
 Frc consts  --      0.4735                 0.8116                 2.2384
 IR Inten    --     67.4144                 6.3347                 4.5319

                     22                     23                     24
                      A                      A                      A
 Frequencies --   1006.0435              1045.1812              1063.4618
 Red. masses --      4.7557                 5.0501                 1.6182
 Frc consts  --      2.8359                 3.2504                 1.0783
 IR Inten    --     18.0760                 3.5530                 0.0031

                     25                     26                     27
                      A                      A                      A
 Frequencies --   1096.4618              1163.2322              1168.6995
 Red. masses --      2.5953                 1.2681                 1.6612
 Frc consts  --      1.8383                 1.0109                 1.3369
 IR Inten    --     31.1439                 0.0180                47.3856

                     28                     29                     30
                      A                      A                      A
 Frequencies --   1180.6667              1231.0281              1244.4905
 Red. masses --      1.8351                 2.9563                 1.0618
 Frc consts  --      1.5072                 2.6396                 0.9689
 IR Inten    --    113.8922                13.3476                 0.6766

                     31                     32                     33
                      A                      A                      A
 Frequencies --   1292.2864              1363.4575              1402.7084
 Red. masses --      1.3533                 1.2421                 1.3945
 Frc consts  --      1.3315                 1.3604                 1.6166
 IR Inten    --     73.8911                18.6546                14.2340

                     34                     35                     36
                      A                      A                      A
 Frequencies --   1455.8928              1479.0847              1489.2557
 Red. masses --      1.2091                 1.0400                 1.4882
 Frc consts  --      1.5099                 1.3405                 1.9447
 IR Inten    --     24.4918                 5.1177                38.5016

                     37                     38                     39
                      A                      A                      A
 Frequencies --   1500.7925              1531.8549              1578.4128
 Red. masses --      1.1063                 1.0720                 2.9738
 Frc consts  --      1.4682                 1.4821                 4.3651
 IR Inten    --     88.8321                 6.6871               563.3942

                     40                     41                     42
                      A                      A                      A
 Frequencies --   1695.8085              1719.2825              2349.4631
 Red. masses --      5.5993                 8.9353                12.6346
 Frc consts  --      9.4871                15.5615                41.0913
 IR Inten    --    185.7967                29.2122                 0.2750

                     43                     44                     45
                      A                      A                      A
 Frequencies --   2986.2737              3003.5938              3008.9929
 Red. masses --      1.0551                 1.0382                 1.1052
 Frc consts  --      5.5440                 5.5186                 5.8958
 IR Inten    --     36.3897                52.9929                19.6214

                     46                     47                     48
                      A                      A                      A
 Frequencies --   3044.2838              3046.3774              3125.7048
 Red. masses --      1.0862                 1.1035                 1.0961
 Frc consts  --      5.9312                 6.0339                 6.3097
 IR Inten    --     18.3933                36.4876                16.0011

                     49                     50                     51
                      A                      A                      A
 Frequencies --   3543.8180              3667.4012              3684.4956
 Red. masses --      1.0744                 1.0775                 1.0777
 Frc consts  --      7.9496                 8.5387                 8.6201
 IR Inten    --      2.2816                11.5696                53.0534

 - Thermochemistry -
 -------------------
 Temperature   298.150 Kelvin.  Pressure   1.00000 Atm.
 Atom     1 has atomic number  6 and mass  12.00000

 Molecular mass:   139.08580 amu.
 Principal axes and moments of inertia in atomic units:
                           1         2         3
     Eigenvalues --   283.515334421.446374682.40434
           X            0.99994  -0.01122   0.00000
           Y            0.01122   0.99994  -0.00000
           Z           -0.00000   0.00000   1.00000
 This molecule is an asymmetric top.
 Rotational symmetry number  1.
 Rotational temperatures (Kelvin)      0.30550     0.01959     0.01850
 Rotational constants (GHZ):           6.36559     0.40818     0.38543
    3 imaginary frequencies ignored.
 Zero-point vibrational energy     393075.7 (Joules/Mol)
                                   93.94736 (Kcal/Mol)
 Warning -- explicit consideration of  13 degrees of freedom as
           vibrations may cause significant error
 Vibrational temperatures:     36.80   106.05   159.95   202.46   244.08
          (Kelvin)            246.69   287.18   406.48   459.91   525.38
                              699.51   777.71   858.86  1005.89  1042.65
                             1067.85  1350.11  1383.21  1447.47  1503.78
                             1530.08  1577.56  1673.63  1681.50  1698.72
                             1771.17  1790.54  1859.31  1961.71  2018.18
                             2094.70  2128.07  2142.71  2159.31  2204.00
                             2270.98  2439.89  2473.66  3380.35  4296.58
                             4321.50  4329.27  4380.05  4383.06  4497.19
                             5098.76  5276.57  5301.17

 Zero-point correction=                           0.149715 (Hartree/Particle)
 Thermal correction to Energy=                    0.159817
 Thermal correction to Enthalpy=                  0.160761
 Thermal correction to Gibbs Free Energy=         0.112550
 Sum of electronic and zero-point Energies=           -469.531262
 Sum of electronic and thermal Energies=              -469.521160
 Sum of electronic and thermal Enthalpies=            -469.520215
 Sum of electronic and thermal Free Energies=         -469.568426

                     E (Thermal)             CV                S
                      KCal/Mol        Cal/Mol-Kelvin    Cal/Mol-Kelvin
 Total                  100.286             34.194            101.468
 Electronic               0.000              0.000              0.000
 Translational            0.889              2.981             40.701
 Rotational               0.889              2.981             30.152
 Vibrational             98.509             28.233             30.615
 Vibration     1          0.593              1.985              6.146
 Vibration     2          0.599              1.966              4.052
 Vibration     3          0.607              1.940              3.248
 Vibration     4          0.615              1.913              2.794
 Vibration     5          0.625              1.880              2.439
 Vibration     6          0.626              1.878              2.419
 Vibration     7          0.638              1.840              2.137
 Vibration     8          0.682              1.706              1.518
 Vibration     9          0.706              1.636              1.312
 Vibration    10          0.738              1.544              1.100
 Vibration    11          0.842              1.281              0.694
 Vibration    12          0.896              1.160              0.564
 Vibration    13          0.955              1.038              0.455

 Optimization completed.
    -- Stationary point found.
 Normal termination of Gaussian 16 at Tue Jun  1 03:07:06 2021.
