 Gaussian 16, Revision A.03,
 Gaussian 16:  ES64L-G16RevA.03 25-Dec-2016

 -----------------------------
 # opt freq b3lyp/6-31g(2df,p)
 -----------------------------

 -------------------
 Title Card Required
 -------------------
 Symbolic Z-matrix:
 Charge =  0 Multiplicity = 1

 SCF Done:  E(RB3LYP) =  -431.509951924     A.U. after   15 cycles
 SCF Done:  E(RB3LYP) =  -431.538521677     A.U. after   13 cycles
 SCF Done:  E(RB3LYP) =  -431.539143578     A.U. after   12 cycles
 SCF Done:  E(RB3LYP) =  -431.540366525     A.U. after   11 cycles
 SCF Done:  E(RB3LYP) =  -431.540419301     A.U. after   11 cycles
 SCF Done:  E(RB3LYP) =  -431.540453078     A.U. after   10 cycles
 SCF Done:  E(RB3LYP) =  -431.540456212     A.U. after    8 cycles
 SCF Done:  E(RB3LYP) =  -431.540457298     A.U. after    7 cycles
 SCF Done:  E(RB3LYP) =  -431.542521410     A.U. after   12 cycles
 SCF Done:  E(RB3LYP) =  -431.512501268     A.U. after   13 cycles
 SCF Done:  E(RB3LYP) =  -431.565192265     A.U. after   11 cycles
 SCF Done:  E(RB3LYP) =  -431.565396900     A.U. after   11 cycles
 SCF Done:  E(RB3LYP) =  -431.565469585     A.U. after   11 cycles
 SCF Done:  E(RB3LYP) =  -431.565496417     A.U. after   10 cycles
 SCF Done:  E(RB3LYP) =  -431.565505826     A.U. after   10 cycles
 SCF Done:  E(RB3LYP) =  -431.565506745     A.U. after    8 cycles
 SCF Done:  E(RB3LYP) =  -431.565507015     A.U. after    7 cycles
 SCF Done:  E(RB3LYP) =  -431.565507053     A.U. after    7 cycles
 SCF Done:  E(RB3LYP) =  -431.565507061     A.U. after    7 cycles
 Optimization completed.
    -- Stationary point found.
 Normal termination of Gaussian 16 at Tue Jun  1 04:03:24 2021.

 ----------------------------------------------------------------------
 #N Geom=AllCheck Guess=TCheck SCRF=Check GenChk RB3LYP/6-31G(2df,p) Fr
 eq
 ----------------------------------------------------------------------

 Structure from the checkpoint file:  "CNCpdNNpNCCtN.chk"
 -------------------
 Title Card Required
 -------------------
 Charge =  0 Multiplicity = 1

                         Standard orientation:
 ---------------------------------------------------------------------
 Center     Atomic      Atomic             Coordinates (Angstroms)
 Number     Number       Type             X           Y           Z
 ---------------------------------------------------------------------
      1          6           0        2.624524   -1.371716   -0.396497
      2          7           0        1.533608   -1.007592    0.512550
      3          6           0        0.620173   -0.028972    0.108134
      4          7           0        0.891284    1.195786   -0.148313
      5          7           0        2.228885    1.592172    0.045143
      6          7           0       -0.717312   -0.450065    0.108850
      7          6           0       -1.718370    0.561492   -0.201763
      8          6           0       -3.065586    0.011477   -0.035249
      9          7           0       -4.129249   -0.425069    0.074916
     10          1           0        3.325573   -2.020246    0.135189
     11          1           0        3.149020   -0.466680   -0.708056
     12          1           0        2.277901   -1.896934   -1.298081
     13          1           0        1.073265   -1.806202    0.928149
     14          1           0        2.212210    2.596720    0.181238
     15          1           0        2.608503    1.162038    0.891764
     16          1           0       -0.865408   -1.317751   -0.392695
     17          1           0       -1.621042    0.973493   -1.216778
     18          1           0       -1.574977    1.405257    0.479494
 ---------------------------------------------------------------------

 SCF Done:  E(RB3LYP) =  -431.565507061     A.U. after    1 cycles

 The electronic state is 1-A.
 Alpha  occ. eigenvalues --  -14.36022 -14.35108 -14.34437 -14.33154 -14.32950
 Alpha  occ. eigenvalues --  -10.27045 -10.26080 -10.22285 -10.21816  -1.00384
 Alpha  occ. eigenvalues --   -0.93958  -0.91217  -0.89630  -0.78761  -0.74185
 Alpha  occ. eigenvalues --   -0.69013  -0.58473  -0.56606  -0.52593  -0.50352
 Alpha  occ. eigenvalues --   -0.49495  -0.47540  -0.45013  -0.43928  -0.43223
 Alpha  occ. eigenvalues --   -0.40039  -0.37936  -0.36015  -0.33725  -0.33022
 Alpha  occ. eigenvalues --   -0.30706  -0.27023  -0.26429  -0.20130
 Alpha virt. eigenvalues --    0.02332   0.03294   0.04443   0.06650   0.08860
 Alpha virt. eigenvalues --    0.10395   0.12158   0.13813   0.15091   0.16213
 Alpha virt. eigenvalues --    0.17355   0.17692   0.18250   0.19362   0.20797

 Mulliken charges:
               1
     1  C   -0.341544
     2  N   -0.362170
     3  C    0.435768
     4  N   -0.298500
     5  N   -0.458270
     6  N   -0.374135
     7  C   -0.257583
     8  C    0.249800
     9  N   -0.299683
    10  H    0.125869
    11  H    0.171713
    12  H    0.112676
    13  H    0.236457
    14  H    0.249296
    15  H    0.236878
    16  H    0.242302
    17  H    0.156045
    18  H    0.175083
 Sum of Mulliken charges =  -0.00000

 Dipole moment (field-independent basis, Debye):
    X=              3.8523    Y=             -0.7687    Z=              0.1446  Tot=              3.9309
 Quadrupole moment (field-independent basis, Debye-Ang):
   XX=            -70.7307   YY=            -46.6716   ZZ=            -53.1715
   XY=             -5.1361   XZ=              4.2460   YZ=              2.6715

  Exact polarizability: 104.568   7.389  78.739   0.858  -0.900  51.115
 Approx polarizability: 137.583  20.635 124.608  -0.586  -6.811  79.344

                      1                      2                      3
                      A                      A                      A
 Frequencies --     46.8783               100.3200               107.0557
 Red. masses --      4.6110                 3.0672                 4.3319
 Frc consts  --      0.0060                 0.0182                 0.0293
 IR Inten    --      4.4379                 4.1213                 8.1325

                      4                      5                      6
                      A                      A                      A
 Frequencies --    176.6189               193.6122               226.8933
 Red. masses --      1.2833                 1.9384                 6.0038
 Frc consts  --      0.0236                 0.0428                 0.1821
 IR Inten    --      1.2129                 0.7334                 3.7553

                      7                      8                      9
                      A                      A                      A
 Frequencies --    261.4335               313.4841               333.7992
 Red. masses --      4.0168                 2.9546                 1.8856
 Frc consts  --      0.1618                 0.1711                 0.1238
 IR Inten    --      6.5484                31.7558                16.4240

                     10                     11                     12
                      A                      A                      A
 Frequencies --    391.3763               403.5253               427.0372
 Red. masses --      3.3420                 2.0131                 3.7019
 Frc consts  --      0.3016                 0.1931                 0.3977
 IR Inten    --      2.0581                 9.6686                12.4900

                     13                     14                     15
                      A                      A                      A
 Frequencies --    531.3281               624.1067               651.5751
 Red. masses --      4.8393                 1.8262                 1.4918
 Frc consts  --      0.8049                 0.4191                 0.3732
 IR Inten    --     16.2715                70.9342               100.7249

                     16                     17                     18
                      A                      A                      A
 Frequencies --    704.3311               774.9707               870.2509
 Red. masses --      5.1874                 2.5159                 2.7858
 Frc consts  --      1.5162                 0.8902                 1.2430
 IR Inten    --     42.2098                46.8486                23.2634

                     19                     20                     21
                      A                      A                      A
 Frequencies --    916.1341               971.6764               999.6300
 Red. masses --      2.4771                 2.4939                 1.8207
 Frc consts  --      1.2249                 1.3873                 1.0719
 IR Inten    --     78.9265                53.3163                 2.0766

                     22                     23                     24
                      A                      A                      A
 Frequencies --   1063.4752              1128.8783              1158.0408
 Red. masses --      3.3447                 2.2320                 1.3767
 Frc consts  --      2.2287                 1.6759                 1.0877
 IR Inten    --      2.7008                23.9483                13.0855

                     25                     26                     27
                      A                      A                      A
 Frequencies --   1163.5043              1195.0831              1230.7677
 Red. masses --      2.6655                 1.7230                 1.1836
 Frc consts  --      2.1260                 1.4499                 1.0564
 IR Inten    --     27.5408                 4.6437                 6.0753

                     28                     29                     30
                      A                      A                      A
 Frequencies --   1273.6889              1349.6888              1363.2235
 Red. masses --      1.9878                 1.3460                 1.4373
 Frc consts  --      1.8999                 1.4447                 1.5737
 IR Inten    --    169.4818                 3.0848                 3.6531

                     31                     32                     33
                      A                      A                      A
 Frequencies --   1456.9143              1468.1983              1484.6557
 Red. masses --      1.1434                 1.3144                 1.0836
 Frc consts  --      1.4299                 1.6693                 1.4072
 IR Inten    --      4.1369                 6.5684                10.8763

                     34                     35                     36
                      A                      A                      A
 Frequencies --   1493.7898              1515.8967              1534.6259
 Red. masses --      1.2320                 1.1987                 1.2830
 Frc consts  --      1.6197                 1.6229                 1.7803
 IR Inten    --    104.5135                25.0954                86.2659

                     37                     38                     39
                      A                      A                      A
 Frequencies --   1642.6969              1744.1629              2368.2782
 Red. masses --      1.1325                 5.5910                12.6069
 Frc consts  --      1.8006                10.0211                41.6603
 IR Inten    --     20.1834               110.5319                 6.1267

                     40                     41                     42
                      A                      A                      A
 Frequencies --   2998.8073              3006.8641              3088.9983
 Red. masses --      1.0515                 1.0714                 1.0837
 Frc consts  --      5.5715                 5.7072                 6.0923
 IR Inten    --     71.9256                19.8632                28.6457

                     43                     44                     45
                      A                      A                      A
 Frequencies --   3090.8198              3139.2142              3402.7991
 Red. masses --      1.0869                 1.1028                 1.0545
 Frc consts  --      6.1174                 6.4031                 7.1938
 IR Inten    --      2.5629                 2.8574                 4.8161

                     46                     47                     48
                      A                      A                      A
 Frequencies --   3548.2455              3561.9863              3576.6942
 Red. masses --      1.0751                 1.0877                 1.0747
 Frc consts  --      7.9751                 8.1306                 8.1005
 IR Inten    --      4.5453                 3.9721                 9.5275

 - Thermochemistry -
 -------------------
 Temperature   298.150 Kelvin.  Pressure   1.00000 Atm.
 Atom     1 has atomic number  6 and mass  12.00000

 Molecular mass:   127.08580 amu.
 Principal axes and moments of inertia in atomic units:
                           1         2         3
     Eigenvalues --   492.849142328.696722732.00406
           X            0.99987  -0.01633   0.00045
           Y            0.01632   0.99965   0.02077
           Z           -0.00079  -0.02076   0.99978
 This molecule is an asymmetric top.
 Rotational symmetry number  1.
 Warning -- assumption of classical behavior for rotation
           may cause significant error
 Rotational temperatures (Kelvin)      0.17574     0.03719     0.03170
 Rotational constants (GHZ):           3.66185     0.77500     0.66059
 Zero-point vibrational energy     389241.1 (Joules/Mol)
                                   93.03086 (Kcal/Mol)
 Warning -- explicit consideration of  13 degrees of freedom as
           vibrations may cause significant error
 Vibrational temperatures:     67.45   144.34   154.03   254.12   278.56
          (Kelvin)            326.45   376.14   451.03   480.26   563.10
                              580.58   614.41   764.46   897.95   937.47
                             1013.38  1115.01  1252.10  1318.11  1398.03
                             1438.24  1530.10  1624.20  1666.16  1674.02
                             1719.46  1770.80  1832.55  1941.90  1961.37
                             2096.17  2112.41  2136.09  2149.23  2181.04
                             2207.98  2363.47  2509.46  3407.42  4314.61
                             4326.21  4444.38  4447.00  4516.63  4895.87
                             5105.13  5124.90  5146.07

 Zero-point correction=                           0.148254 (Hartree/Particle)
 Thermal correction to Energy=                    0.158290
 Thermal correction to Enthalpy=                  0.159234
 Thermal correction to Gibbs Free Energy=         0.112658
 Sum of electronic and zero-point Energies=           -431.417253
 Sum of electronic and thermal Energies=              -431.407217
 Sum of electronic and thermal Enthalpies=            -431.406273
 Sum of electronic and thermal Free Energies=         -431.452849

                     E (Thermal)             CV                S
                      KCal/Mol        Cal/Mol-Kelvin    Cal/Mol-Kelvin
 Total                   99.329             35.499             98.028
 Electronic               0.000              0.000              0.000
 Translational            0.889              2.981             40.432
 Rotational               0.889              2.981             29.529
 Vibrational             97.551             29.537             28.067
 Vibration     1          0.595              1.979              4.945
 Vibration     2          0.604              1.949              3.448
 Vibration     3          0.606              1.944              3.322
 Vibration     4          0.628              1.871              2.364
 Vibration     5          0.635              1.849              2.193
 Vibration     6          0.651              1.800              1.903
 Vibration     7          0.669              1.743              1.652
 Vibration     8          0.701              1.648              1.344
 Vibration     9          0.715              1.608              1.242
 Vibration    10          0.759              1.489              0.995
 Vibration    11          0.769              1.463              0.950
 Vibration    12          0.789              1.411              0.868
 Vibration    13          0.886              1.181              0.584

 Optimization completed.
    -- Stationary point found.
 Normal termination of Gaussian 16 at Tue Jun  1 04:25:46 2021.
