 Gaussian 16, Revision A.03,
 Gaussian 16:  ES64L-G16RevA.03 25-Dec-2016

 -----------------------------
 # opt freq b3lyp/6-31g(2df,p)
 -----------------------------

 -------------------
 Title Card Required
 -------------------
 Symbolic Z-matrix:
 Charge =  0 Multiplicity = 1

 SCF Done:  E(RB3LYP) =  -378.606338888     A.U. after   13 cycles
 SCF Done:  E(RB3LYP) =  -378.610579450     A.U. after   13 cycles
 SCF Done:  E(RB3LYP) =  -378.611946632     A.U. after   13 cycles
 SCF Done:  E(RB3LYP) =  -378.612991563     A.U. after   13 cycles
 SCF Done:  E(RB3LYP) =  -378.612689083     A.U. after   15 cycles
 SCF Done:  E(RB3LYP) =  -378.614252533     A.U. after   13 cycles
 SCF Done:  E(RB3LYP) =  -378.614608533     A.U. after   11 cycles
 SCF Done:  E(RB3LYP) =  -378.614699484     A.U. after   10 cycles
 SCF Done:  E(RB3LYP) =  -378.614716409     A.U. after    9 cycles
 SCF Done:  E(RB3LYP) =  -378.614720084     A.U. after    9 cycles
 SCF Done:  E(RB3LYP) =  -378.614721904     A.U. after    8 cycles
 SCF Done:  E(RB3LYP) =  -378.614722394     A.U. after    7 cycles
 SCF Done:  E(RB3LYP) =  -378.614722526     A.U. after    7 cycles
 Optimization completed.
    -- Stationary point found.
 Normal termination of Gaussian 16 at Tue Jun  1 00:06:25 2021.

 ----------------------------------------------------------------------
 #N Geom=AllCheck Guess=TCheck SCRF=Check GenChk RB3LYP/6-31G(2df,p) Fr
 eq
 ----------------------------------------------------------------------

 Structure from the checkpoint file:  "CNCpCppNpCNdN.chk"
 -------------------
 Title Card Required
 -------------------
 Charge =  0 Multiplicity = 1

                         Standard orientation:
 ---------------------------------------------------------------------
 Center     Atomic      Atomic             Coordinates (Angstroms)
 Number     Number       Type             X           Y           Z
 ---------------------------------------------------------------------
      1          6           0        2.821170   -0.316891    0.023445
      2          7           0        1.479392   -0.839031    0.256642
      3          6           0        0.363730    0.086795   -0.014502
      4          6           0        0.198185    1.146971    1.097741
      5          7           0        0.561190    0.685912   -1.336978
      6          6           0       -0.890042   -0.811518   -0.096460
      7          7           0       -2.080819   -0.023446   -0.416598
      8          7           0       -3.046590   -0.266179    0.323691
      9          1           0        3.547543   -1.086768    0.299495
     10          1           0        3.077545    0.598384    0.586801
     11          1           0        2.944365   -0.107854   -1.041786
     12          1           0        1.404861   -1.152911    1.219301
     13          1           0        1.099391    1.764116    1.174901
     14          1           0        0.023580    0.680109    2.074300
     15          1           0       -0.648192    1.808053    0.887056
     16          1           0        1.133009    1.521877   -1.260683
     17          1           0       -0.343575    0.988618   -1.685707
     18          1           0       -1.034685   -1.383567    0.827393
     19          1           0       -0.729305   -1.500103   -0.932482
     20          1           0       -3.825012    0.337110    0.002767
 ---------------------------------------------------------------------

 SCF Done:  E(RB3LYP) =  -378.614722526     A.U. after    1 cycles

 The electronic state is 1-A.
 Alpha  occ. eigenvalues --  -14.38694 -14.37601 -14.30706 -14.30508 -10.24474
 Alpha  occ. eigenvalues --  -10.20248 -10.19394 -10.17432  -1.03123  -0.92538
 Alpha  occ. eigenvalues --   -0.84851  -0.77394  -0.71652  -0.66881  -0.61178
 Alpha  occ. eigenvalues --   -0.55838  -0.51383  -0.49061  -0.46447  -0.45069
 Alpha  occ. eigenvalues --   -0.43800  -0.42552  -0.40051  -0.39714  -0.38479
 Alpha  occ. eigenvalues --   -0.38263  -0.35724  -0.35185  -0.32946  -0.24732
 Alpha  occ. eigenvalues --   -0.23104  -0.21448
 Alpha virt. eigenvalues --   -0.04477   0.07102   0.10456   0.11112   0.12760
 Alpha virt. eigenvalues --    0.13658   0.14917   0.15750   0.16760   0.17451
 Alpha virt. eigenvalues --    0.18177   0.18894   0.20155   0.20784   0.22666

 Mulliken charges:
               1
     1  C   -0.330732
     2  N   -0.282685
     3  C    0.238677
     4  C   -0.421093
     5  N   -0.526325
     6  C   -0.115109
     7  N   -0.126837
     8  N   -0.270126
     9  H    0.117981
    10  H    0.086371
    11  H    0.140537
    12  H    0.208961
    13  H    0.113566
    14  H    0.109050
    15  H    0.117843
    16  H    0.223091
    17  H    0.237403
    18  H    0.097380
    19  H    0.139060
    20  H    0.242986
 Sum of Mulliken charges =  -0.00000

 Dipole moment (field-independent basis, Debye):
    X=              0.0118    Y=              1.4905    Z=              0.9238  Tot=              1.7535
 Quadrupole moment (field-independent basis, Debye-Ang):
   XX=            -46.9185   YY=            -49.0741   ZZ=            -51.5338
   XY=             -0.9611   XZ=              3.7032   YZ=             -1.8052

  Exact polarizability:  96.144  -2.730  63.078  -2.449  -2.527  63.537
 Approx polarizability: 122.996  -2.569  93.401  -7.200  -5.701  97.601

                      1                      2                      3
                      A                      A                      A
 Frequencies --     80.5384                99.5144               115.8590
 Red. masses --      3.5342                 4.4396                 2.1977
 Frc consts  --      0.0135                 0.0259                 0.0174
 IR Inten    --      0.5341                 0.1733                 2.4458

                      4                      5                      6
                      A                      A                      A
 Frequencies --    184.4070               236.8988               264.6164
 Red. masses --      2.0418                 1.5810                 1.0775
 Frc consts  --      0.0409                 0.0523                 0.0445
 IR Inten    --      3.5088                 5.9552                 0.2632

                      7                      8                      9
                      A                      A                      A
 Frequencies --    280.1833               311.5796               337.4049
 Red. masses --      1.1615                 2.2230                 2.7936
 Frc consts  --      0.0537                 0.1272                 0.1874
 IR Inten    --     38.4002                 4.6287                 1.5273

                     10                     11                     12
                      A                      A                      A
 Frequencies --    371.8968               406.8403               472.6299
 Red. masses --      3.0610                 2.7522                 2.8781
 Frc consts  --      0.2494                 0.2684                 0.3788
 IR Inten    --      1.5057                 1.3836                 1.9453

                     13                     14                     15
                      A                      A                      A
 Frequencies --    510.1219               597.1111               737.4871
 Red. masses --      2.8966                 2.5504                 2.4258
 Frc consts  --      0.4441                 0.5358                 0.7774
 IR Inten    --     10.2249                21.2227                31.1162

                     16                     17                     18
                      A                      A                      A
 Frequencies --    788.5120               865.1486               888.3430
 Red. masses --      1.6784                 1.6397                 1.4628
 Frc consts  --      0.6148                 0.7231                 0.6802
 IR Inten    --     72.6462                 8.0349                60.8112

                     19                     20                     21
                      A                      A                      A
 Frequencies --    930.6415               947.0937               984.7407
 Red. masses --      1.7891                 1.4426                 1.9734
 Frc consts  --      0.9130                 0.7624                 1.1275
 IR Inten    --     17.0009                78.4880                16.3905

                     22                     23                     24
                      A                      A                      A
 Frequencies --   1005.8264              1077.9834              1105.7012
 Red. masses --      2.2637                 1.5462                 2.1118
 Frc consts  --      1.3493                 1.0586                 1.5212
 IR Inten    --     20.0728                 4.8469                 8.9073

                     25                     26                     27
                      A                      A                      A
 Frequencies --   1131.9594              1155.9421              1184.3783
 Red. masses --      1.7390                 1.4467                 2.2376
 Frc consts  --      1.3128                 1.1389                 1.8493
 IR Inten    --      3.5295                 3.6675                56.0101

                     28                     29                     30
                      A                      A                      A
 Frequencies --   1229.0419              1287.3275              1319.5031
 Red. masses --      1.4528                 2.0262                 1.5304
 Frc consts  --      1.2929                 1.9783                 1.5699
 IR Inten    --     51.6247                16.9022                14.5869

                     31                     32                     33
                      A                      A                      A
 Frequencies --   1372.9787              1399.4851              1447.4076
 Red. masses --      1.7769                 1.2404                 1.1677
 Frc consts  --      1.9735                 1.4314                 1.4413
 IR Inten    --     17.7516                10.1544                 0.3727

                     34                     35                     36
                      A                      A                      A
 Frequencies --   1455.8046              1473.1772              1491.4599
 Red. masses --      1.0868                 1.1542                 1.0663
 Frc consts  --      1.3571                 1.4758                 1.3975
 IR Inten    --      4.4525                14.1014                 0.6766

                     37                     38                     39
                      A                      A                      A
 Frequencies --   1495.8700              1499.2572              1503.4056
 Red. masses --      1.2828                 1.0891                 1.1045
 Frc consts  --      1.6912                 1.4424                 1.4709
 IR Inten    --     31.1969                 1.0541                10.9855

                     40                     41                     42
                      A                      A                      A
 Frequencies --   1524.7052              1657.7288              1665.0874
 Red. masses --      1.0586                 5.7618                 1.1860
 Frc consts  --      1.4499                 9.3290                 1.9373
 IR Inten    --     15.6547                 4.4825                37.3516

                     43                     44                     45
                      A                      A                      A
 Frequencies --   2938.9502              3023.6421              3031.9644
 Red. masses --      1.0610                 1.0372                 1.0560
 Frc consts  --      5.3995                 5.5867                 5.7193
 IR Inten    --     82.9308                17.6148                13.0873

                     46                     47                     48
                      A                      A                      A
 Frequencies --   3075.0733              3091.7981              3097.9228
 Red. masses --      1.0715                 1.1001                 1.1050
 Frc consts  --      5.9696                 6.1958                 6.2483
 IR Inten    --     38.5753                19.4797                15.8551

                     49                     50                     51
                      A                      A                      A
 Frequencies --   3105.4378              3122.1021              3240.0804
 Red. masses --      1.1016                 1.1011                 1.0738
 Frc consts  --      6.2590                 6.3239                 6.6418
 IR Inten    --     28.0126                14.9491                31.4562

                     52                     53                     54
                      A                      A                      A
 Frequencies --   3494.8907              3514.1727              3570.8389
 Red. masses --      1.0496                 1.0732                 1.0919
 Frc consts  --      7.5531                 7.8084                 8.2031
 IR Inten    --      6.4780                 0.4302                 5.4919

 - Thermochemistry -
 -------------------
 Temperature   298.150 Kelvin.  Pressure   1.00000 Atm.
 Atom     1 has atomic number  6 and mass  12.00000

 Molecular mass:   116.10620 amu.
 Principal axes and moments of inertia in atomic units:
                           1         2         3
     Eigenvalues --   427.733541585.852211589.69926
           X            0.99999   0.00398   0.00178
           Y            0.00125  -0.65260   0.75770
           Z           -0.00418   0.75769   0.65260
 This molecule is an asymmetric top.
 Rotational symmetry number  1.
 Rotational temperatures (Kelvin)      0.20250     0.05462     0.05448
 Rotational constants (GHZ):           4.21931     1.13803     1.13527
 Zero-point vibrational energy     461773.3 (Joules/Mol)
                                  110.36648 (Kcal/Mol)
 Warning -- explicit consideration of  14 degrees of freedom as
           vibrations may cause significant error
 Vibrational temperatures:    115.88   143.18   166.70   265.32   340.84
          (Kelvin)            380.72   403.12   448.29   485.45   535.08
                              585.35   680.01   733.95   859.11  1061.08
                             1134.49  1244.76  1278.13  1338.99  1362.66
                             1416.82  1447.16  1550.98  1590.86  1628.64
                             1663.14  1704.06  1768.32  1852.18  1898.47
                             1975.41  2013.55  2082.50  2094.58  2119.57
                             2145.88  2152.22  2157.10  2163.07  2193.71
                             2385.10  2395.69  4228.49  4350.35  4362.32
                             4424.34  4448.41  4457.22  4468.03  4492.01
                             4661.75  5028.37  5056.11  5137.64

 Zero-point correction=                           0.175880 (Hartree/Particle)
 Thermal correction to Energy=                    0.185651
 Thermal correction to Enthalpy=                  0.186595
 Thermal correction to Gibbs Free Energy=         0.141668
 Sum of electronic and zero-point Energies=           -378.438842
 Sum of electronic and thermal Energies=              -378.429072
 Sum of electronic and thermal Enthalpies=            -378.428127
 Sum of electronic and thermal Free Energies=         -378.473055

                     E (Thermal)             CV                S
                      KCal/Mol        Cal/Mol-Kelvin    Cal/Mol-Kelvin
 Total                  116.498             35.572             94.557
 Electronic               0.000              0.000              0.000
 Translational            0.889              2.981             40.163
 Rotational               0.889              2.981             28.469
 Vibrational            114.720             29.611             25.926
 Vibration     1          0.600              1.962              3.878
 Vibration     2          0.604              1.949              3.464
 Vibration     3          0.608              1.936              3.168
 Vibration     4          0.631              1.861              2.283
 Vibration     5          0.656              1.784              1.826
 Vibration     6          0.671              1.738              1.631
 Vibration     7          0.680              1.710              1.533
 Vibration     8          0.700              1.652              1.354
 Vibration     9          0.718              1.601              1.224
 Vibration    10          0.744              1.530              1.072
 Vibration    11          0.772              1.455              0.938
 Vibration    12          0.829              1.311              0.730
 Vibration    13          0.865              1.228              0.633
 Vibration    14          0.955              1.038              0.455

 Optimization completed.
    -- Stationary point found.
 Normal termination of Gaussian 16 at Tue Jun  1 00:42:06 2021.
