 Gaussian 16, Revision A.03,
 Gaussian 16:  ES64L-G16RevA.03 25-Dec-2016

 -----------------------------
 # opt freq b3lyp/6-31g(2df,p)
 -----------------------------

 -------------------
 Title Card Required
 -------------------
 Symbolic Z-matrix:
 Charge =  0 Multiplicity = 1

 SCF Done:  E(RB3LYP) =  -431.536859039     A.U. after   14 cycles
 SCF Done:  E(RB3LYP) =  -431.544676150     A.U. after   12 cycles
 SCF Done:  E(RB3LYP) =  -431.547993100     A.U. after   12 cycles
 SCF Done:  E(RB3LYP) =  -431.553869156     A.U. after   13 cycles
 SCF Done:  E(RB3LYP) =  -431.554899552     A.U. after   12 cycles
 SCF Done:  E(RB3LYP) =  -431.555927394     A.U. after   12 cycles
 SCF Done:  E(RB3LYP) =  -431.558024551     A.U. after   13 cycles
 SCF Done:  E(RB3LYP) =  -431.560370762     A.U. after   14 cycles
 SCF Done:  E(RB3LYP) =  -431.561247998     A.U. after   12 cycles
 SCF Done:  E(RB3LYP) =  -431.562285946     A.U. after   12 cycles
 SCF Done:  E(RB3LYP) =  -431.565001964     A.U. after   11 cycles
 SCF Done:  E(RB3LYP) =  -431.565077724     A.U. after   10 cycles
 SCF Done:  E(RB3LYP) =  -431.565167575     A.U. after   11 cycles
 SCF Done:  E(RB3LYP) =  -431.565199401     A.U. after   11 cycles
 SCF Done:  E(RB3LYP) =  -431.565225879     A.U. after   11 cycles
 SCF Done:  E(RB3LYP) =  -431.565239266     A.U. after    9 cycles
 SCF Done:  E(RB3LYP) =  -431.565241068     A.U. after    9 cycles
 SCF Done:  E(RB3LYP) =  -431.565241506     A.U. after    8 cycles
 SCF Done:  E(RB3LYP) =  -431.565241530     A.U. after    7 cycles
 Optimization completed.
    -- Stationary point found.
 Normal termination of Gaussian 16 at Tue Jun  1 19:23:31 2021.

 ----------------------------------------------------------------------
 #N Geom=AllCheck Guess=TCheck SCRF=Check GenChk RB3LYP/6-31G(2df,p) Fr
 eq
 ----------------------------------------------------------------------

 Structure from the checkpoint file:  "CNCpdNpNpNpCCtN.chk"
 -------------------
 Title Card Required
 -------------------
 Charge =  0 Multiplicity = 1

                         Standard orientation:
 ---------------------------------------------------------------------
 Center     Atomic      Atomic             Coordinates (Angstroms)
 Number     Number       Type             X           Y           Z
 ---------------------------------------------------------------------
      1          6           0        3.271701    0.110462    0.401759
      2          7           0        1.919894    0.570975    0.144028
      3          6           0        0.905168   -0.354247   -0.055525
      4          7           0        1.029930   -1.619507   -0.208972
      5          7           0       -0.367878    0.230212   -0.114166
      6          7           0       -0.528294    1.572694   -0.518351
      7          6           0       -1.478643   -0.621355   -0.511158
      8          6           0       -2.703553   -0.255099    0.208200
      9          7           0       -3.674217    0.022551    0.769230
     10          1           0        3.917176    0.980880    0.535948
     11          1           0        3.645201   -0.454104   -0.457971
     12          1           0        3.352112   -0.526139    1.294773
     13          1           0        1.646699    1.395957    0.655459
     14          1           0        1.978450   -1.933734   -0.031875
     15          1           0        0.203421    1.837710   -1.172423
     16          1           0       -0.495962    2.190344    0.286774
     17          1           0       -1.200711   -1.651945   -0.282093
     18          1           0       -1.670467   -0.556009   -1.590638
 ---------------------------------------------------------------------

 SCF Done:  E(RB3LYP) =  -431.565241530     A.U. after    1 cycles

 The electronic state is 1-A.
 Alpha  occ. eigenvalues --  -14.38525 -14.36764 -14.36408 -14.31907 -14.28833
 Alpha  occ. eigenvalues --  -10.28555 -10.24876 -10.23490 -10.21083  -1.02609
 Alpha  occ. eigenvalues --   -0.94986  -0.89184  -0.87493  -0.81591  -0.74620
 Alpha  occ. eigenvalues --   -0.69524  -0.59279  -0.57328  -0.53634  -0.52210
 Alpha  occ. eigenvalues --   -0.48923  -0.47801  -0.46513  -0.44971  -0.43080
 Alpha  occ. eigenvalues --   -0.41130  -0.37569  -0.34937  -0.32549  -0.31754
 Alpha  occ. eigenvalues --   -0.29978  -0.27064  -0.25355  -0.23365
 Alpha virt. eigenvalues --    0.03065   0.04153   0.05116   0.05726   0.08132
 Alpha virt. eigenvalues --    0.10673   0.12476   0.13732   0.14419   0.15324
 Alpha virt. eigenvalues --    0.15879   0.16516   0.18756   0.19540   0.21989

 Mulliken charges:
               1
     1  C   -0.337312
     2  N   -0.341578
     3  C    0.464244
     4  N   -0.579030
     5  N   -0.143638
     6  N   -0.465926
     7  C   -0.262359
     8  C    0.279941
     9  N   -0.315676
    10  H    0.132968
    11  H    0.146885
    12  H    0.129613
    13  H    0.234414
    14  H    0.215372
    15  H    0.248415
    16  H    0.254047
    17  H    0.196117
    18  H    0.143503
 Sum of Mulliken charges =   0.00000

 Dipole moment (field-independent basis, Debye):
    X=              5.9762    Y=              2.1917    Z=             -0.5150  Tot=              6.3862
 Quadrupole moment (field-independent basis, Debye-Ang):
   XX=            -62.8722   YY=            -51.1276   ZZ=            -53.3876
   XY=              4.3859   XZ=              7.2335   YZ=              1.0810

  Exact polarizability: 100.086  -3.653  73.871  -1.411   2.932  54.415
 Approx polarizability: 128.174  -9.611 119.396  -8.766   7.585  85.405

                      1                      2                      3
                      A                      A                      A
 Frequencies --     39.1602                75.6595               120.7529
 Red. masses --      4.9424                 4.7020                 3.6042
 Frc consts  --      0.0045                 0.0159                 0.0310
 IR Inten    --      4.1587                 8.3101                 7.5938

                      4                      5                      6
                      A                      A                      A
 Frequencies --    142.0742               199.4925               235.5488
 Red. masses --      3.3302                 1.1501                 2.7752
 Frc consts  --      0.0396                 0.0270                 0.0907
 IR Inten    --      2.0049                 0.2801                 2.7579

                      7                      8                      9
                      A                      A                      A
 Frequencies --    267.1742               318.9528               354.7521
 Red. masses --      4.7979                 1.6427                 2.1791
 Frc consts  --      0.2018                 0.0985                 0.1616
 IR Inten    --     11.3461                60.2247                17.4903

                     10                     11                     12
                      A                      A                      A
 Frequencies --    379.2554               382.1652               449.6826
 Red. masses --      2.3993                 3.1916                 4.8884
 Frc consts  --      0.2033                 0.2746                 0.5824
 IR Inten    --      3.3379                 4.7219                 1.7154

                     13                     14                     15
                      A                      A                      A
 Frequencies --    498.9087               563.7044               674.6969
 Red. masses --      1.4791                 4.7280                 3.1709
 Frc consts  --      0.2169                 0.8852                 0.8504
 IR Inten    --    102.0098                 1.4607                 5.6537

                     16                     17                     18
                      A                      A                      A
 Frequencies --    726.2819               748.2106               821.2888
 Red. masses --      2.2320                 1.8455                 2.5549
 Frc consts  --      0.6937                 0.6087                 1.0153
 IR Inten    --      4.9665                62.3059                57.0389

                     19                     20                     21
                      A                      A                      A
 Frequencies --    889.1080               925.4412               972.5851
 Red. masses --      1.6530                 4.5160                 2.2980
 Frc consts  --      0.7699                 2.2788                 1.2807
 IR Inten    --     72.5544                 7.7312                39.0943

                     22                     23                     24
                      A                      A                      A
 Frequencies --   1019.8853              1133.9181              1143.5293
 Red. masses --      2.3290                 1.5007                 1.3980
 Frc consts  --      1.4273                 1.1368                 1.0771
 IR Inten    --     32.3186               132.8827                17.1521

                     25                     26                     27
                      A                      A                      A
 Frequencies --   1169.9513              1180.9270              1266.9632
 Red. masses --      1.6262                 2.4811                 3.0128
 Frc consts  --      1.3115                 2.0386                 2.8494
 IR Inten    --     20.4988                 8.9828                24.4809

                     28                     29                     30
                      A                      A                      A
 Frequencies --   1292.3311              1315.8211              1370.6819
 Red. masses --      1.5266                 1.1895                 1.4976
 Frc consts  --      1.5021                 1.2134                 1.6578
 IR Inten    --     42.8694                 5.0650                40.1991

                     31                     32                     33
                      A                      A                      A
 Frequencies --   1384.8157              1453.3243              1463.4331
 Red. masses --      1.8190                 1.1963                 1.0752
 Frc consts  --      2.0553                 1.4888                 1.3567
 IR Inten    --     57.7779                16.1436                 9.3481

                     34                     35                     36
                      A                      A                      A
 Frequencies --   1485.8888              1515.2036              1533.9108
 Red. masses --      1.0790                 1.2185                 1.5269
 Frc consts  --      1.4036                 1.6482                 2.1167
 IR Inten    --     28.7254                20.6945               202.4536

                     37                     38                     39
                      A                      A                      A
 Frequencies --   1679.3442              1701.0884              2367.3814
 Red. masses --      1.1868                 4.3860                12.5972
 Frc consts  --      1.9720                 7.4778                41.5968
 IR Inten    --     30.2163               186.3036                 5.5326

                     40                     41                     42
                      A                      A                      A
 Frequencies --   3000.0459              3020.9957              3081.0745
 Red. masses --      1.0493                 1.0694                 1.0874
 Frc consts  --      5.5643                 5.7501                 6.0820
 IR Inten    --     49.5374                22.5072                22.1820

                     43                     44                     45
                      A                      A                      A
 Frequencies --   3123.1601              3128.1180              3467.8458
 Red. masses --      1.0896                 1.1006                 1.0447
 Frc consts  --      6.2618                 6.3450                 7.4020
 IR Inten    --     16.8690                13.8916                 1.2099

                     46                     47                     48
                      A                      A                      A
 Frequencies --   3549.6657              3557.1762              3613.0878
 Red. masses --      1.0746                 1.0988                 1.0752
 Frc consts  --      7.9777                 8.1920                 8.2700
 IR Inten    --      2.2165                 4.4743                 9.4690

 - Thermochemistry -
 -------------------
 Temperature   298.150 Kelvin.  Pressure   1.00000 Atm.
 Atom     1 has atomic number  6 and mass  12.00000

 Molecular mass:   127.08580 amu.
 Principal axes and moments of inertia in atomic units:
                           1         2         3
     Eigenvalues --   455.560072104.867802379.41937
           X            0.99988   0.00241   0.01539
           Y           -0.00258   0.99993   0.01117
           Z           -0.01536  -0.01120   0.99982
 This molecule is an asymmetric top.
 Rotational symmetry number  1.
 Warning -- assumption of classical behavior for rotation
           may cause significant error
 Rotational temperatures (Kelvin)      0.19013     0.04115     0.03640
 Rotational constants (GHZ):           3.96159     0.85741     0.75848
 Zero-point vibrational energy     387616.8 (Joules/Mol)
                                   92.64263 (Kcal/Mol)
 Warning -- explicit consideration of  14 degrees of freedom as
           vibrations may cause significant error
 Vibrational temperatures:     56.34   108.86   173.74   204.41   287.03
          (Kelvin)            338.90   384.40   458.90   510.41   545.66
                              549.85   646.99   717.82   811.04   970.74
                             1044.96  1076.51  1181.65  1279.23  1331.50
                             1399.33  1467.39  1631.46  1645.28  1683.30
                             1699.09  1822.88  1859.38  1893.17  1972.11
                             1992.44  2091.01  2105.55  2137.86  2180.04
                             2206.96  2416.20  2447.49  3406.13  4316.40
                             4346.54  4432.98  4493.53  4500.66  4989.46
                             5107.18  5117.98  5198.43

 Zero-point correction=                           0.147635 (Hartree/Particle)
 Thermal correction to Energy=                    0.157807
 Thermal correction to Enthalpy=                  0.158751
 Thermal correction to Gibbs Free Energy=         0.111797
 Sum of electronic and zero-point Energies=           -431.417606
 Sum of electronic and thermal Energies=              -431.407434
 Sum of electronic and thermal Enthalpies=            -431.406490
 Sum of electronic and thermal Free Energies=         -431.453444

                     E (Thermal)             CV                S
                      KCal/Mol        Cal/Mol-Kelvin    Cal/Mol-Kelvin
 Total                   99.026             35.915             98.823
 Electronic               0.000              0.000              0.000
 Translational            0.889              2.981             40.432
 Rotational               0.889              2.981             29.213
 Vibrational             97.248             29.954             29.178
 Vibration     1          0.594              1.981              5.301
 Vibration     2          0.599              1.965              4.000
 Vibration     3          0.609              1.932              3.088
 Vibration     4          0.616              1.911              2.776
 Vibration     5          0.638              1.841              2.138
 Vibration     6          0.655              1.786              1.836
 Vibration     7          0.672              1.733              1.614
 Vibration     8          0.705              1.637              1.315
 Vibration     9          0.731              1.566              1.145
 Vibration    10          0.749              1.514              1.042
 Vibration    11          0.752              1.508              1.031
 Vibration    12          0.809              1.362              0.797
 Vibration    13          0.854              1.252              0.661
 Vibration    14          0.919              1.110              0.516

 Optimization completed.
    -- Stationary point found.
 Normal termination of Gaussian 16 at Tue Jun  1 19:47:25 2021.
