 Gaussian 16, Revision A.03,
 Gaussian 16:  ES64L-G16RevA.03 25-Dec-2016

 -----------------------------
 # opt freq b3lyp/6-31g(2df,p)
 -----------------------------

 -------------------
 Title Card Required
 -------------------
 Symbolic Z-matrix:
 Charge =  0 Multiplicity = 1

 SCF Done:  E(RB3LYP) =  -494.156196628     A.U. after   15 cycles
 SCF Done:  E(RB3LYP) =  -494.182940437     A.U. after   12 cycles
 SCF Done:  E(RB3LYP) =  -494.185315529     A.U. after   13 cycles
 SCF Done:  E(RB3LYP) =  -494.186577614     A.U. after   12 cycles
 SCF Done:  E(RB3LYP) =  -494.186791652     A.U. after   12 cycles
 SCF Done:  E(RB3LYP) =  -494.186905505     A.U. after   11 cycles
 SCF Done:  E(RB3LYP) =  -494.186924989     A.U. after    9 cycles
 SCF Done:  E(RB3LYP) =  -494.186930828     A.U. after    9 cycles
 SCF Done:  E(RB3LYP) =  -494.186934747     A.U. after    9 cycles
 SCF Done:  E(RB3LYP) =  -494.186942139     A.U. after    8 cycles
 SCF Done:  E(RB3LYP) =  -494.186975456     A.U. after   11 cycles
 SCF Done:  E(RB3LYP) =  -494.186971985     A.U. after   11 cycles
 SCF Done:  E(RB3LYP) =  -494.187019196     A.U. after   10 cycles
 SCF Done:  E(RB3LYP) =  -494.187033022     A.U. after    9 cycles
 SCF Done:  E(RB3LYP) =  -494.187034808     A.U. after    8 cycles
 SCF Done:  E(RB3LYP) =  -494.187033447     A.U. after    9 cycles
 SCF Done:  E(RB3LYP) =  -494.187036279     A.U. after    9 cycles
 SCF Done:  E(RB3LYP) =  -494.187036076     A.U. after    7 cycles
 SCF Done:  E(RB3LYP) =  -494.187036473     A.U. after    7 cycles
 Optimization completed.
    -- Stationary point found.
 Normal termination of Gaussian 16 at Tue Jun  1 15:12:29 2021.

 ----------------------------------------------------------------------
 #N Geom=AllCheck Guess=TCheck SCRF=Check GenChk RB3LYP/6-31G(2df,p) Fr
 eq
 ----------------------------------------------------------------------

 Structure from the checkpoint file:  "CNCpdNpCNCCCCtN.chk"
 -------------------
 Title Card Required
 -------------------
 Charge =  0 Multiplicity = 1

                         Standard orientation:
 ---------------------------------------------------------------------
 Center     Atomic      Atomic             Coordinates (Angstroms)
 Number     Number       Type             X           Y           Z
 ---------------------------------------------------------------------
      1          6           0       -5.017245    0.274444   -0.181416
      2          7           0       -3.773291   -0.463529   -0.152706
      3          6           0       -2.565865    0.137916    0.088060
      4          7           0       -2.360229    1.360303    0.405058
      5          6           0       -1.375021   -0.808857    0.038911
      6          7           0       -0.160241   -0.086771   -0.279101
      7          6           0        1.052558   -0.724372    0.196016
      8          6           0        2.278966    0.109391   -0.175688
      9          6           0        3.585105   -0.552559    0.302741
     10          6           0        4.772481    0.228189   -0.036764
     11          7           0        5.703831    0.854981   -0.310952
     12          1           0       -5.836802   -0.417923   -0.382425
     13          1           0       -5.025939    1.056152   -0.954252
     14          1           0       -5.208869    0.750857    0.787074
     15          1           0       -3.759562   -1.365593   -0.597657
     16          1           0       -3.215897    1.912080    0.425085
     17          1           0       -1.555447   -1.600288   -0.704425
     18          1           0       -1.328888   -1.317647    1.022362
     19          1           0       -0.265236    0.851873    0.100184
     20          1           0        1.133821   -1.715667   -0.273433
     21          1           0        1.046490   -0.905994    1.290787
     22          1           0        2.197776    1.107227    0.270653
     23          1           0        2.307197    0.249732   -1.260168
     24          1           0        3.690229   -1.549945   -0.140876
     25          1           0        3.564770   -0.694670    1.389825
 ---------------------------------------------------------------------

 SCF Done:  E(RB3LYP) =  -494.187036473     A.U. after    1 cycles

 The electronic state is 1-A.
 Alpha  occ. eigenvalues --  -14.35787 -14.31922 -14.30780 -14.29049 -10.25470
 Alpha  occ. eigenvalues --  -10.23153 -10.23067 -10.21674 -10.21313 -10.21310
 Alpha  occ. eigenvalues --  -10.19936  -0.96448  -0.90694  -0.89366  -0.85638
 Alpha  occ. eigenvalues --   -0.80782  -0.74267  -0.70955  -0.65612  -0.60880
 Alpha  occ. eigenvalues --   -0.57618  -0.53806  -0.51037  -0.49766  -0.49530
 Alpha  occ. eigenvalues --   -0.46924  -0.45248  -0.44754  -0.43492  -0.41312
 Alpha  occ. eigenvalues --   -0.40823  -0.39389  -0.36815  -0.36231  -0.35242
 Alpha  occ. eigenvalues --   -0.34498  -0.33288  -0.31575  -0.31440  -0.26759
 Alpha  occ. eigenvalues --   -0.23805  -0.22058
 Alpha virt. eigenvalues --    0.03251   0.04196   0.04718   0.06386   0.08566
 Alpha virt. eigenvalues --    0.08934   0.10537   0.11741   0.12938   0.14039
 Alpha virt. eigenvalues --    0.15135   0.15436   0.16145   0.16943   0.17370

 Mulliken charges:
               1
     1  C   -0.339025
     2  N   -0.307808
     3  C    0.374368
     4  N   -0.538056
     5  C   -0.203223
     6  N   -0.300421
     7  C   -0.122893
     8  C   -0.195624
     9  C   -0.339338
    10  C    0.257612
    11  N   -0.305930
    12  H    0.132219
    13  H    0.131459
    14  H    0.139709
    15  H    0.245000
    16  H    0.208921
    17  H    0.092975
    18  H    0.101320
    19  H    0.238827
    20  H    0.096946
    21  H    0.075506
    22  H    0.123477
    23  H    0.131692
    24  H    0.150602
    25  H    0.151685
 Sum of Mulliken charges =  -0.00000

 Dipole moment (field-independent basis, Debye):
    X=             -6.5050    Y=             -3.7222    Z=              0.5354  Tot=              7.5138
 Quadrupole moment (field-independent basis, Debye-Ang):
   XX=            -79.4536   YY=            -66.2976   ZZ=            -67.9505
   XY=             -7.4825   XZ=              7.3363   YZ=              1.4552

  Exact polarizability: 141.363   6.335  93.754   0.370   1.265  73.531
 Approx polarizability: 162.747  19.238 154.490  -1.692   3.220 115.495

                      1                      2                      3
                      A                      A                      A
 Frequencies --     27.6961                46.8285                56.0259
 Red. masses --      4.7668                 4.7692                 2.6841
 Frc consts  --      0.0022                 0.0062                 0.0050
 IR Inten    --      1.4040                 1.2843                 4.4357

                      4                      5                      6
                      A                      A                      A
 Frequencies --     84.9871               117.6727               137.8513
 Red. masses --      3.1321                 3.1252                 2.4272
 Frc consts  --      0.0133                 0.0255                 0.0272
 IR Inten    --      3.5761                 6.4295                 6.7808

                      7                      8                      9
                      A                      A                      A
 Frequencies --    146.8812               168.3177               173.8867
 Red. masses --      2.8594                 1.1107                 3.5510
 Frc consts  --      0.0363                 0.0185                 0.0633
 IR Inten    --      2.9082                 2.6217                 2.5290

                     10                     11                     12
                      A                      A                      A
 Frequencies --    235.8210               256.4413               308.6172
 Red. masses --      4.5336                 2.8309                 1.8242
 Frc consts  --      0.1485                 0.1097                 0.1024
 IR Inten    --      1.2913                11.0606                49.0645

                     13                     14                     15
                      A                      A                      A
 Frequencies --    366.2044               398.7681               414.9083
 Red. masses --      2.0032                 3.4752                 3.7429
 Frc consts  --      0.1583                 0.3256                 0.3796
 IR Inten    --     38.3151                 0.6421                 9.0441

                     16                     17                     18
                      A                      A                      A
 Frequencies --    474.1953               556.2449               590.9675
 Red. masses --      4.0975                 3.3362                 2.8547
 Frc consts  --      0.5429                 0.6082                 0.5874
 IR Inten    --      0.7269                 5.6985                 1.0258

                     19                     20                     21
                      A                      A                      A
 Frequencies --    679.4017               752.3978               807.5153
 Red. masses --      2.8568                 1.1161                 1.3041
 Frc consts  --      0.7769                 0.3723                 0.5010
 IR Inten    --     13.0123                 1.9895                61.2834

                     22                     23                     24
                      A                      A                      A
 Frequencies --    837.3547               867.5223               899.3214
 Red. masses --      1.3580                 1.3244                 3.1775
 Frc consts  --      0.5610                 0.5873                 1.5141
 IR Inten    --     48.2729                 3.9099                10.8420

                     25                     26                     27
                      A                      A                      A
 Frequencies --    944.6623              1006.1460              1021.1893
 Red. masses --      4.1096                 1.9450                 3.2426
 Frc consts  --      2.1607                 1.1601                 1.9923
 IR Inten    --      3.2185                 7.7588                 2.2784

                     28                     29                     30
                      A                      A                      A
 Frequencies --   1040.0477              1065.3208              1101.7839
 Red. masses --      2.4487                 2.3089                 2.3568
 Frc consts  --      1.5606                 1.5439                 1.6856
 IR Inten    --      4.4232                 9.8086                 9.2872

                     31                     32                     33
                      A                      A                      A
 Frequencies --   1139.0891              1154.1688              1170.6398
 Red. masses --      1.7961                 1.2909                 2.2791
 Frc consts  --      1.3730                 1.0131                 1.8402
 IR Inten    --      7.1891                 2.2011                37.0712

                     34                     35                     36
                      A                      A                      A
 Frequencies --   1182.4301              1196.6793              1211.2848
 Red. masses --      1.6194                 2.0586                 1.4963
 Frc consts  --      1.3340                 1.7369                 1.2935
 IR Inten    --      2.4349                78.6690                 5.8576

                     37                     38                     39
                      A                      A                      A
 Frequencies --   1257.0731              1273.0660              1299.5652
 Red. masses --      1.3044                 1.3323                 1.2618
 Frc consts  --      1.2145                 1.2722                 1.2556
 IR Inten    --      5.3737                20.4729                14.7434

                     40                     41                     42
                      A                      A                      A
 Frequencies --   1311.3150              1319.6770              1358.5524
 Red. masses --      1.3380                 1.0754                 1.4157
 Frc consts  --      1.3556                 1.1035                 1.5395
 IR Inten    --     45.3992                 5.0096                 4.2981

                     43                     44                     45
                      A                      A                      A
 Frequencies --   1388.3076              1428.1949              1454.9371
 Red. masses --      1.4941                 1.5189                 1.1960
 Frc consts  --      1.6967                 1.8254                 1.4916
 IR Inten    --      2.5644                20.7519                18.9943

                     46                     47                     48
                      A                      A                      A
 Frequencies --   1469.3964              1482.3987              1494.3744
 Red. masses --      1.0821                 1.0487                 1.0933
 Frc consts  --      1.3765                 1.3577                 1.4385
 IR Inten    --      2.4911                14.7186                 3.6709

                     49                     50                     51
                      A                      A                      A
 Frequencies --   1500.4613              1508.3373              1518.0604
 Red. masses --      1.1200                 1.1840                 1.1518
 Frc consts  --      1.4856                 1.5871                 1.5638
 IR Inten    --      1.9526               145.8275                 1.1442

                     52                     53                     54
                      A                      A                      A
 Frequencies --   1524.2499              1542.6825              1715.6215
 Red. masses --      1.0942                 1.7074                 6.6946
 Frc consts  --      1.4978                 2.3941                11.6095
 IR Inten    --      2.5727               155.2156               124.2896

                     55                     56                     57
                      A                      A                      A
 Frequencies --   2362.8874              2886.3944              2904.8288
 Red. masses --     12.6097                 1.0729                 1.0735
 Frc consts  --     41.4803                 5.2666                 5.3367
 IR Inten    --     13.7329                77.8963                66.8600

                     58                     59                     60
                      A                      A                      A
 Frequencies --   2991.3979              3002.3488              3006.7661
 Red. masses --      1.0838                 1.0449                 1.0838
 Frc consts  --      5.7142                 5.5492                 5.7731
 IR Inten    --     51.0202                46.2229                32.5121

                     61                     62                     63
                      A                      A                      A
 Frequencies --   3034.8273              3049.0157              3061.2425
 Red. masses --      1.0585                 1.0631                 1.0949
 Frc consts  --      5.7439                 5.8229                 6.0455
 IR Inten    --      1.8971                25.0188                28.5745

                     64                     65                     66
                      A                      A                      A
 Frequencies --   3069.7913              3102.2091              3129.1141
 Red. masses --      1.0992                 1.1027                 1.0977
 Frc consts  --      6.1031                 6.2526                 6.3322
 IR Inten    --      1.5754                22.5575                14.5195

                     67                     68                     69
                      A                      A                      A
 Frequencies --   3488.0437              3500.0467              3648.0718
 Red. masses --      1.0733                 1.0741                 1.0769
 Frc consts  --      7.6938                 7.7527                 8.4444
 IR Inten    --     48.4859                 3.7109                20.0284

 - Thermochemistry -
 -------------------
 Temperature   298.150 Kelvin.  Pressure   1.00000 Atm.
 Atom     1 has atomic number  6 and mass  12.00000

 Molecular mass:   154.12185 amu.
 Principal axes and moments of inertia in atomic units:
                           1         2         3
     Eigenvalues --   342.783716468.375126692.01674
           X            0.99997  -0.00668   0.00372
           Y            0.00670   0.99997  -0.00462
           Z           -0.00369   0.00465   0.99998
 This molecule is an asymmetric top.
 Rotational symmetry number  1.
 Rotational temperatures (Kelvin)      0.25268     0.01339     0.01294
 Rotational constants (GHZ):           5.26496     0.27901     0.26969
 Zero-point vibrational energy     566566.5 (Joules/Mol)
                                  135.41265 (Kcal/Mol)
 Warning -- explicit consideration of  18 degrees of freedom as
           vibrations may cause significant error
 Vibrational temperatures:     39.85    67.38    80.61   122.28   169.30
          (Kelvin)            198.34   211.33   242.17   250.18   339.29
                              368.96   444.03   526.89   573.74   596.96
                              682.26   800.31   850.27   977.51  1082.53
                             1161.83  1204.77  1248.17  1293.92  1359.16
                             1447.62  1469.26  1496.40  1532.76  1585.22
                             1638.90  1660.59  1684.29  1701.25  1721.75
                             1742.77  1808.65  1831.66  1869.78  1886.69
                             1898.72  1954.65  1997.46  2054.85  2093.33
                             2114.13  2132.84  2150.07  2158.83  2170.16
                             2184.15  2193.06  2219.58  2468.40  3399.67
                             4152.88  4179.40  4303.95  4319.71  4326.07
                             4366.44  4386.85  4404.45  4416.74  4463.39
                             4502.10  5018.52  5035.79  5248.76

 Zero-point correction=                           0.215794 (Hartree/Particle)
 Thermal correction to Energy=                    0.229018
 Thermal correction to Enthalpy=                  0.229962
 Thermal correction to Gibbs Free Energy=         0.174443
 Sum of electronic and zero-point Energies=           -493.971243
 Sum of electronic and thermal Energies=              -493.958019
 Sum of electronic and thermal Enthalpies=            -493.957075
 Sum of electronic and thermal Free Energies=         -494.012594

                     E (Thermal)             CV                S
                      KCal/Mol        Cal/Mol-Kelvin    Cal/Mol-Kelvin
 Total                  143.711             45.612            116.850
 Electronic               0.000              0.000              0.000
 Translational            0.889              2.981             41.007
 Rotational               0.889              2.981             31.074
 Vibrational            141.933             39.650             44.769
 Vibration     1          0.593              1.984              5.988
 Vibration     2          0.595              1.979              4.947
 Vibration     3          0.596              1.975              4.592
 Vibration     4          0.601              1.960              3.772
 Vibration     5          0.608              1.935              3.138
 Vibration     6          0.614              1.916              2.833
 Vibration     7          0.617              1.906              2.712
 Vibration     8          0.625              1.881              2.454
 Vibration     9          0.627              1.875              2.393
 Vibration    10          0.655              1.786              1.834
 Vibration    11          0.666              1.752              1.686
 Vibration    12          0.698              1.657              1.370
 Vibration    13          0.739              1.542              1.096
 Vibration    14          0.765              1.473              0.967
 Vibration    15          0.778              1.438              0.909
 Vibration    16          0.831              1.307              0.726
 Vibration    17          0.912              1.126              0.531
 Vibration    18          0.948              1.051              0.465

                           ! Non-Optimized Parameters !
 Normal termination of Gaussian 16 at Tue Jun  1 15:53:18 2021.
