 Gaussian 16, Revision A.03,
 Gaussian 16:  ES64L-G16RevA.03 25-Dec-2016

 -----------------------------
 # opt freq b3lyp/6-31g(2df,p)
 -----------------------------

 -------------------
 Title Card Required
 -------------------
 Symbolic Z-matrix:
 Charge =  0 Multiplicity = 1

 SCF Done:  E(RB3LYP) =  -495.344187283     A.U. after   14 cycles
 SCF Done:  E(RB3LYP) =  -495.372182078     A.U. after   12 cycles
 SCF Done:  E(RB3LYP) =  -495.374587667     A.U. after   11 cycles
 SCF Done:  E(RB3LYP) =  -495.375079928     A.U. after   12 cycles
 SCF Done:  E(RB3LYP) =  -495.375729614     A.U. after   11 cycles
 SCF Done:  E(RB3LYP) =  -495.375823431     A.U. after   10 cycles
 SCF Done:  E(RB3LYP) =  -495.375844834     A.U. after    9 cycles
 SCF Done:  E(RB3LYP) =  -495.375860657     A.U. after    9 cycles
 SCF Done:  E(RB3LYP) =  -495.375869212     A.U. after    9 cycles
 SCF Done:  E(RB3LYP) =  -495.375871443     A.U. after    9 cycles
 SCF Done:  E(RB3LYP) =  -495.375872576     A.U. after    8 cycles
 SCF Done:  E(RB3LYP) =  -495.375873505     A.U. after    9 cycles
 SCF Done:  E(RB3LYP) =  -495.375873982     A.U. after    8 cycles
 SCF Done:  E(RB3LYP) =  -495.375874305     A.U. after    8 cycles
 SCF Done:  E(RB3LYP) =  -495.375874373     A.U. after    6 cycles
 Optimization completed.
    -- Stationary point found.
 Normal termination of Gaussian 16 at Tue Jun  1 15:29:44 2021.

 ----------------------------------------------------------------------
 #N Geom=AllCheck Guess=TCheck SCRF=Check GenChk RB3LYP/6-31G(2df,p) Fr
 eq
 ----------------------------------------------------------------------

 Structure from the checkpoint file:  "CNCpCNpCNCCCtN.chk"
 -------------------
 Title Card Required
 -------------------
 Charge =  0 Multiplicity = 1

                         Standard orientation:
 ---------------------------------------------------------------------
 Center     Atomic      Atomic             Coordinates (Angstroms)
 Number     Number       Type             X           Y           Z
 ---------------------------------------------------------------------
      1          6           0        3.907919   -1.205557    0.473184
      2          7           0        2.650452   -1.227100   -0.273818
      3          6           0        1.679401   -0.190235    0.081325
      4          6           0        2.056524    1.164795   -0.547644
      5          7           0        3.165620    1.817408    0.154221
      6          6           0        0.296060   -0.648488   -0.411073
      7          7           0       -0.791657    0.135600    0.170730
      8          6           0       -2.110380   -0.315494   -0.245959
      9          6           0       -3.189754    0.485103    0.505408
     10          6           0       -4.542680    0.060959    0.157054
     11          7           0       -5.606371   -0.288274   -0.128895
     12          1           0        4.508413   -2.071555    0.177674
     13          1           0        3.770624   -1.240587    1.569668
     14          1           0        4.461244   -0.295378    0.241861
     15          1           0        2.214394   -2.131861   -0.130175
     16          1           0        1.601376   -0.049047    1.177475
     17          1           0        1.155574    1.803310   -0.598235
     18          1           0        2.369538    0.971687   -1.579520
     19          1           0        2.872683    2.081424    1.090741
     20          1           0        3.416640    2.679250   -0.319928
     21          1           0        0.142893   -1.688897   -0.095546
     22          1           0        0.287059   -0.653382   -1.516425
     23          1           0       -0.679428    1.111274   -0.088574
     24          1           0       -2.210790   -1.375809    0.011648
     25          1           0       -2.288300   -0.238086   -1.333122
     26          1           0       -3.092483    1.554091    0.279147
     27          1           0       -3.038290    0.373635    1.583882
 ---------------------------------------------------------------------

 SCF Done:  E(RB3LYP) =  -495.375874373     A.U. after    1 cycles

 The electronic state is 1-A.
 Alpha  occ. eigenvalues --  -14.33085 -14.32640 -14.31542 -14.30949 -10.23641
 Alpha  occ. eigenvalues --  -10.23227 -10.21996 -10.21545 -10.21314 -10.20974
 Alpha  occ. eigenvalues --  -10.18709  -0.92809  -0.90354  -0.89799  -0.87428
 Alpha  occ. eigenvalues --   -0.79778  -0.74236  -0.66954  -0.65574  -0.63122
 Alpha  occ. eigenvalues --   -0.57862  -0.52241  -0.51528  -0.49825  -0.48591
 Alpha  occ. eigenvalues --   -0.47420  -0.45040  -0.44189  -0.42621  -0.42185
 Alpha  occ. eigenvalues --   -0.41061  -0.39842  -0.38450  -0.37562  -0.35865
 Alpha  occ. eigenvalues --   -0.35499  -0.34302  -0.33980  -0.32245  -0.32017
 Alpha  occ. eigenvalues --   -0.24840  -0.23873  -0.21593
 Alpha virt. eigenvalues --    0.03439   0.04014   0.06501   0.07643   0.08535
 Alpha virt. eigenvalues --    0.09868   0.10864   0.11976   0.13417   0.14163
 Alpha virt. eigenvalues --    0.14807   0.15608   0.16855   0.17149   0.17734

 Mulliken charges:
               1
     1  C   -0.314751
     2  N   -0.294763
     3  C    0.048862
     4  C   -0.128576
     5  N   -0.508400
     6  C   -0.164586
     7  N   -0.309165
     8  C   -0.121748
     9  C   -0.347925
    10  C    0.256580
    11  N   -0.303610
    12  H    0.106546
    13  H    0.083177
    14  H    0.152737
    15  H    0.210665
    16  H    0.056383
    17  H    0.061707
    18  H    0.116334
    19  H    0.225178
    20  H    0.228293
    21  H    0.097156
    22  H    0.094249
    23  H    0.214913
    24  H    0.127153
    25  H    0.103689
    26  H    0.146978
    27  H    0.162925
 Sum of Mulliken charges =  -0.00000

 Dipole moment (field-independent basis, Debye):
    X=              3.0941    Y=              1.9684    Z=              0.7331  Tot=              3.7398
 Quadrupole moment (field-independent basis, Debye-Ang):
   XX=           -105.7130   YY=            -59.9252   ZZ=            -68.5433
   XY=             -2.3741   XZ=             -1.3885   YZ=             -1.1106

  Exact polarizability: 137.239   2.015  94.142   4.855   1.252  82.650
 Approx polarizability: 165.833   8.169 136.677   8.020   3.776 129.406

                      1                      2                      3
                      A                      A                      A
 Frequencies --     26.4903                49.3428                52.6225
 Red. masses --      3.6005                 2.3119                 3.1616
 Frc consts  --      0.0015                 0.0033                 0.0052
 IR Inten    --      3.4212                 0.0700                 2.3252

                      4                      5                      6
                      A                      A                      A
 Frequencies --     68.3711               109.4820               118.4680
 Red. masses --      3.0801                 2.9557                 2.7460
 Frc consts  --      0.0085                 0.0209                 0.0227
 IR Inten    --      3.7674                 3.1132                 3.9310

                      7                      8                      9
                      A                      A                      A
 Frequencies --    141.8536               169.2168               215.7543
 Red. masses --      2.2015                 2.6509                 1.3945
 Frc consts  --      0.0261                 0.0447                 0.0382
 IR Inten    --      1.8206                 7.9286                 4.2950

                     10                     11                     12
                      A                      A                      A
 Frequencies --    231.3309               243.9534               290.9067
 Red. masses --      2.0226                 1.4561                 3.3145
 Frc consts  --      0.0638                 0.0511                 0.1653
 IR Inten    --      5.4378                21.7991                 3.0143

                     13                     14                     15
                      A                      A                      A
 Frequencies --    308.0253               353.6232               400.9327
 Red. masses --      3.7517                 3.5522                 3.4739
 Frc consts  --      0.2097                 0.2617                 0.3290
 IR Inten    --      2.3662                 5.1824                 0.7820

                     16                     17                     18
                      A                      A                      A
 Frequencies --    435.6237               491.3763               534.5259
 Red. masses --      2.8266                 2.8087                 5.0520
 Frc consts  --      0.3160                 0.3996                 0.8504
 IR Inten    --      6.0526                 6.7573                 5.7653

                     19                     20                     21
                      A                      A                      A
 Frequencies --    583.7305               769.5148               779.9849
 Red. masses --      3.1872                 1.3971                 1.1557
 Frc consts  --      0.6399                 0.4874                 0.4142
 IR Inten    --     15.7051                74.7270                48.0735

                     22                     23                     24
                      A                      A                      A
 Frequencies --    790.2074               810.1520               867.7201
 Red. masses --      1.2580                 1.5260                 1.6792
 Frc consts  --      0.4628                 0.5901                 0.7449
 IR Inten    --     11.4125                45.4760                41.3203

                     25                     26                     27
                      A                      A                      A
 Frequencies --    934.8509               948.7952              1022.2152
 Red. masses --      1.8983                 3.5567                 2.7169
 Frc consts  --      0.9775                 1.8864                 1.6727
 IR Inten    --     32.9933                16.2313                17.7933

                     28                     29                     30
                      A                      A                      A
 Frequencies --   1027.1341              1028.7229              1065.0170
 Red. masses --      1.5370                 2.6197                 2.1718
 Frc consts  --      0.9554                 1.6334                 1.4514
 IR Inten    --      3.8084                 1.4310                15.3101

                     31                     32                     33
                      A                      A                      A
 Frequencies --   1072.4163              1097.5097              1121.9806
 Red. masses --      2.7759                 2.4671                 1.8447
 Frc consts  --      1.8810                 1.7509                 1.3682
 IR Inten    --      7.5886                 6.0148                 0.3736

                     34                     35                     36
                      A                      A                      A
 Frequencies --   1140.5381              1156.2356              1164.4772
 Red. masses --      1.4864                 3.3001                 1.7558
 Frc consts  --      1.1392                 2.5994                 1.4028
 IR Inten    --      4.9807                52.1819                 9.6680

                     37                     38                     39
                      A                      A                      A
 Frequencies --   1182.5768              1210.9684              1237.4780
 Red. masses --      1.6322                 1.5352                 1.5031
 Frc consts  --      1.3449                 1.3264                 1.3562
 IR Inten    --     53.0191                 3.0803                 0.8781

                     40                     41                     42
                      A                      A                      A
 Frequencies --   1275.7839              1290.3661              1311.3525
 Red. masses --      1.3089                 1.3209                 1.1823
 Frc consts  --      1.2552                 1.2958                 1.1979
 IR Inten    --      6.8016                 7.5337                 5.6526

                     43                     44                     45
                      A                      A                      A
 Frequencies --   1323.6725              1343.0353              1373.6117
 Red. masses --      1.1702                 1.2294                 1.3509
 Frc consts  --      1.2080                 1.3066                 1.5018
 IR Inten    --      1.6891                 8.8601                19.5889

                     46                     47                     48
                      A                      A                      A
 Frequencies --   1384.2337              1420.4036              1428.7375
 Red. masses --      1.3493                 1.4253                 1.4125
 Frc consts  --      1.5233                 1.6943                 1.6988
 IR Inten    --      6.6044                 6.3466                10.7909

                     49                     50                     51
                      A                      A                      A
 Frequencies --   1458.6464              1469.5395              1484.0095
 Red. masses --      1.1690                 1.0856                 1.1287
 Frc consts  --      1.4654                 1.3813                 1.4646
 IR Inten    --      3.7345                 2.8346                37.0149

                     52                     53                     54
                      A                      A                      A
 Frequencies --   1486.0266              1502.4552              1506.5987
 Red. masses --      1.1062                 1.1413                 1.0979
 Frc consts  --      1.4393                 1.5179                 1.4683
 IR Inten    --      3.4406                 2.3567                31.1047

                     55                     56                     57
                      A                      A                      A
 Frequencies --   1510.2329              1522.0975              1535.6341
 Red. masses --      1.1367                 1.0875                 1.1024
 Frc consts  --      1.5275                 1.4845                 1.5316
 IR Inten    --      1.5250                 1.9505                18.8935

                     58                     59                     60
                      A                      A                      A
 Frequencies --   1655.3889              2364.6070              2902.8323
 Red. masses --      1.0894                12.6091                 1.0794
 Frc consts  --      1.7590                41.5388                 5.3589
 IR Inten    --     26.1937                12.1300                32.7219

                     61                     62                     63
                      A                      A                      A
 Frequencies --   2921.2517              2936.3115              2940.0857
 Red. masses --      1.0721                 1.0615                 1.0703
 Frc consts  --      5.3906                 5.3923                 5.4509
 IR Inten    --    149.3835                69.4023                66.6712

                     64                     65                     66
                      A                      A                      A
 Frequencies --   2949.3959              3028.9520              3038.9178
 Red. masses --      1.0724                 1.0895                 1.0643
 Frc consts  --      5.4961                 5.8893                 5.7911
 IR Inten    --     76.4323                31.8976                 3.6409

                     67                     68                     69
                      A                      A                      A
 Frequencies --   3061.3703              3066.9978              3073.3752
 Red. masses --      1.0847                 1.0874                 1.0762
 Frc consts  --      5.9893                 6.0266                 5.9892
 IR Inten    --     17.9896                21.7435                51.2497

                     70                     71                     72
                      A                      A                      A
 Frequencies --   3091.4238              3147.5415              3488.6536
 Red. masses --      1.0993                 1.0974                 1.0494
 Frc consts  --      6.1897                 6.4055                 7.5247
 IR Inten    --      8.1381                 4.9277                 0.1856

                     73                     74                     75
                      A                      A                      A
 Frequencies --   3503.6424              3511.3787              3568.1166
 Red. masses --      1.0728                 1.0736                 1.0922
 Frc consts  --      7.7589                 7.7988                 8.1930
 IR Inten    --      1.7128                 0.8435                 0.2996

 - Thermochemistry -
 -------------------
 Temperature   298.150 Kelvin.  Pressure   1.00000 Atm.
 Atom     1 has atomic number  6 and mass  12.00000

 Molecular mass:   156.13750 amu.
 Principal axes and moments of inertia in atomic units:
                           1         2         3
     Eigenvalues --   631.587685452.226885873.96633
           X            0.99999  -0.00298   0.00273
           Y            0.00300   0.99996  -0.00838
           Z           -0.00271   0.00839   0.99996
 This molecule is an asymmetric top.
 Rotational symmetry number  1.
 Warning -- assumption of classical behavior for rotation
           may cause significant error
 Rotational temperatures (Kelvin)      0.13714     0.01589     0.01475
 Rotational constants (GHZ):           2.85747     0.33101     0.30724
 Zero-point vibrational energy     628821.9 (Joules/Mol)
                                  150.29203 (Kcal/Mol)
 Warning -- explicit consideration of  19 degrees of freedom as
           vibrations may cause significant error
 Vibrational temperatures:     38.11    70.99    75.71    98.37   157.52
          (Kelvin)            170.45   204.10   243.47   310.42   332.83
                              350.99   418.55   443.18   508.78   576.85
                              626.77   706.98   769.06   839.86  1107.16
                             1122.22  1136.93  1165.63  1248.46  1345.04
                             1365.10  1470.74  1477.82  1480.10  1532.32
                             1542.97  1579.07  1614.28  1640.98  1663.57
                             1675.42  1701.46  1742.31  1780.45  1835.57
                             1856.55  1886.74  1904.47  1932.33  1976.32
                             1991.60  2043.64  2055.63  2098.67  2114.34
                             2135.16  2138.06  2161.70  2167.66  2172.89
                             2189.96  2209.43  2381.74  3402.14  4176.53
                             4203.03  4224.70  4230.13  4243.52  4357.99
                             4372.32  4404.63  4412.73  4421.90  4447.87
                             4528.61  5019.39  5040.96  5052.09  5133.72

 Zero-point correction=                           0.239506 (Hartree/Particle)
 Thermal correction to Energy=                    0.253225
 Thermal correction to Enthalpy=                  0.254170
 Thermal correction to Gibbs Free Energy=         0.197428
 Sum of electronic and zero-point Energies=           -495.136369
 Sum of electronic and thermal Energies=              -495.122649
 Sum of electronic and thermal Enthalpies=            -495.121705
 Sum of electronic and thermal Free Energies=         -495.178446

                     E (Thermal)             CV                S
                      KCal/Mol        Cal/Mol-Kelvin    Cal/Mol-Kelvin
 Total                  158.901             47.721            119.423
 Electronic               0.000              0.000              0.000
 Translational            0.889              2.981             41.046
 Rotational               0.889              2.981             31.381
 Vibrational            157.124             41.760             46.995
 Vibration     1          0.593              1.985              6.076
 Vibration     2          0.595              1.978              4.844
 Vibration     3          0.596              1.977              4.716
 Vibration     4          0.598              1.969              4.200
 Vibration     5          0.606              1.942              3.278
 Vibration     6          0.609              1.934              3.125
 Vibration     7          0.615              1.911              2.779
 Vibration     8          0.625              1.880              2.444
 Vibration     9          0.645              1.817              1.994
 Vibration    10          0.653              1.793              1.869
 Vibration    11          0.659              1.773              1.774
 Vibration    12          0.687              1.691              1.469
 Vibration    13          0.698              1.658              1.373
 Vibration    14          0.730              1.568              1.150
 Vibration    15          0.767              1.468              0.959
 Vibration    16          0.796              1.393              0.840
 Vibration    17          0.847              1.269              0.680
 Vibration    18          0.890              1.174              0.577
 Vibration    19          0.941              1.067              0.478

                           ! Non-Optimized Parameters !
 Normal termination of Gaussian 16 at Tue Jun  1 16:18:48 2021.
