 Gaussian 16, Revision A.03,
 Gaussian 16:  ES64L-G16RevA.03 25-Dec-2016

 -----------------------------
 # opt freq b3lyp/6-31g(2df,p)
 -----------------------------

 -------------------
 Title Card Required
 -------------------
 Symbolic Z-matrix:
 Charge =  0 Multiplicity = 1

 SCF Done:  E(RB3LYP) =  -378.650383226     A.U. after   13 cycles
 SCF Done:  E(RB3LYP) =  -378.655638887     A.U. after   11 cycles
 SCF Done:  E(RB3LYP) =  -378.656752410     A.U. after   11 cycles
 SCF Done:  E(RB3LYP) =  -378.657840508     A.U. after   11 cycles
 SCF Done:  E(RB3LYP) =  -378.660479686     A.U. after   12 cycles
 SCF Done:  E(RB3LYP) =  -378.662302053     A.U. after   11 cycles
 SCF Done:  E(RB3LYP) =  -378.663905032     A.U. after   11 cycles
 SCF Done:  E(RB3LYP) =  -378.664492881     A.U. after   11 cycles
 SCF Done:  E(RB3LYP) =  -378.665348436     A.U. after   11 cycles
 SCF Done:  E(RB3LYP) =  -378.666162939     A.U. after   11 cycles
 SCF Done:  E(RB3LYP) =  -378.668602126     A.U. after    8 cycles
 SCF Done:  E(RB3LYP) =  -378.668603753     A.U. after    9 cycles
 SCF Done:  E(RB3LYP) =  -378.668604240     A.U. after    8 cycles
 SCF Done:  E(RB3LYP) =  -378.668605658     A.U. after    9 cycles
 SCF Done:  E(RB3LYP) =  -378.668606871     A.U. after    9 cycles
 SCF Done:  E(RB3LYP) =  -378.668607307     A.U. after    9 cycles
 SCF Done:  E(RB3LYP) =  -378.668607453     A.U. after    8 cycles
 SCF Done:  E(RB3LYP) =  -378.668607483     A.U. after    7 cycles
 SCF Done:  E(RB3LYP) =  -378.668607499     A.U. after    7 cycles
 Optimization completed.
    -- Stationary point found.
 Normal termination of Gaussian 16 at Tue Jun  1 13:01:44 2021.

 ----------------------------------------------------------------------
 #N Geom=AllCheck Guess=TCheck SCRF=Check GenChk RB3LYP/6-31G(2df,p) Fr
 eq
 ----------------------------------------------------------------------

 Structure from the checkpoint file:  "CNCpdNpNpCpCN.chk"
 -------------------
 Title Card Required
 -------------------
 Charge =  0 Multiplicity = 1

                         Standard orientation:
 ---------------------------------------------------------------------
 Center     Atomic      Atomic             Coordinates (Angstroms)
 Number     Number       Type             X           Y           Z
 ---------------------------------------------------------------------
      1          6           0        2.914471   -0.171273    0.309112
      2          7           0        1.683903    0.468693   -0.103409
      3          6           0        0.514934   -0.258545   -0.239257
      4          7           0        0.434338   -1.544378   -0.261012
      5          7           0       -0.636219    0.505650   -0.409665
      6          6           0       -0.719213    1.841502    0.159767
      7          6           0       -1.880981   -0.237444   -0.517830
      8          7           0       -2.342767   -0.711730    0.790316
      9          1           0        3.667229    0.599537    0.487530
     10          1           0        3.300902   -0.833975   -0.474356
     11          1           0        2.795881   -0.763222    1.227805
     12          1           0        1.602412    1.445511    0.111928
     13          1           0        1.352504   -1.974992   -0.215426
     14          1           0       -0.033045    2.536604   -0.340582
     15          1           0       -0.530659    1.868641    1.242041
     16          1           0       -1.727419    2.224898   -0.004387
     17          1           0       -1.704381   -1.040685   -1.240100
     18          1           0       -2.639258    0.440719   -0.923979
     19          1           0       -1.747841   -1.497135    1.045322
     20          1           0       -3.286371   -1.078983    0.699849
 ---------------------------------------------------------------------

 SCF Done:  E(RB3LYP) =  -378.668607499     A.U. after    1 cycles

 The electronic state is 1-A.
 Alpha  occ. eigenvalues --  -14.34025 -14.33126 -14.29069 -14.26259 -10.26083
 Alpha  occ. eigenvalues --  -10.21915 -10.21845 -10.21189  -0.97607  -0.90792
 Alpha  occ. eigenvalues --   -0.84522  -0.83339  -0.70641  -0.69677  -0.63498
 Alpha  occ. eigenvalues --   -0.55578  -0.52747  -0.49644  -0.46903  -0.46138
 Alpha  occ. eigenvalues --   -0.43893  -0.43571  -0.41881  -0.40535  -0.39600
 Alpha  occ. eigenvalues --   -0.37692  -0.36109  -0.34355  -0.25252  -0.23315
 Alpha  occ. eigenvalues --   -0.22681  -0.20580
 Alpha virt. eigenvalues --    0.06436   0.07553   0.10121   0.11046   0.12555
 Alpha virt. eigenvalues --    0.14261   0.15691   0.16213   0.17120   0.17382
 Alpha virt. eigenvalues --    0.17805   0.19237   0.19902   0.21024   0.22184

 Mulliken charges:
               1
     1  C   -0.331676
     2  N   -0.342991
     3  C    0.466950
     4  N   -0.603523
     5  N   -0.086817
     6  C   -0.344387
     7  C   -0.123207
     8  N   -0.514515
     9  H    0.124826
    10  H    0.134730
    11  H    0.127313
    12  H    0.238406
    13  H    0.202626
    14  H    0.117689
    15  H    0.126171
    16  H    0.134386
    17  H    0.122699
    18  H    0.089756
    19  H    0.243641
    20  H    0.217924
 Sum of Mulliken charges =  -0.00000

 Dipole moment (field-independent basis, Debye):
    X=              1.2890    Y=              1.9649    Z=              0.3520  Tot=              2.3761
 Quadrupole moment (field-independent basis, Debye-Ang):
   XX=            -40.6777   YY=            -47.9535   ZZ=            -52.9528
   XY=              1.3747   XZ=              3.2593   YZ=             -0.7284

  Exact polarizability:  90.571  -0.972  77.104   1.824   0.388  53.940
 Approx polarizability: 112.479  -0.335 118.547   2.437  -0.205  80.643

                      1                      2                      3
                      A                      A                      A
 Frequencies --     14.6655                95.4651               110.1459
 Red. masses --      2.2193                 2.6924                 2.9480
 Frc consts  --      0.0003                 0.0145                 0.0211
 IR Inten    --     17.0470                 0.1665                 6.9865

                      4                      5                      6
                      A                      A                      A
 Frequencies --    124.3919               151.0547               181.7586
 Red. masses --      1.5064                 1.6978                 1.4768
 Frc consts  --      0.0137                 0.0228                 0.0287
 IR Inten    --      4.8158                13.8269                 1.5167

                      7                      8                      9
                      A                      A                      A
 Frequencies --    235.4605               282.3392               300.4777
 Red. masses --      1.8077                 1.4622                 1.2331
 Frc consts  --      0.0590                 0.0687                 0.0656
 IR Inten    --     20.0160                65.5332                24.5089

                     10                     11                     12
                      A                      A                      A
 Frequencies --    376.2926               428.8080               442.7401
 Red. masses --      2.6023                 2.3957                 3.9193
 Frc consts  --      0.2171                 0.2595                 0.4526
 IR Inten    --      9.5706                 0.6783                33.5816

                     13                     14                     15
                      A                      A                      A
 Frequencies --    586.0179               604.9135               733.9438
 Red. masses --      3.5202                 2.9036                 1.5170
 Frc consts  --      0.7123                 0.6260                 0.4815
 IR Inten    --      8.4900                22.1454                14.2696

                     16                     17                     18
                      A                      A                      A
 Frequencies --    749.2010               812.1479               896.1659
 Red. masses --      3.1816                 2.7254                 1.3293
 Frc consts  --      1.0522                 1.0591                 0.6290
 IR Inten    --     31.6322                13.0003               113.7026

                     19                     20                     21
                      A                      A                      A
 Frequencies --    964.7385              1011.4868              1047.7112
 Red. masses --      2.6183                 1.7619                 2.6304
 Frc consts  --      1.4358                 1.0621                 1.7012
 IR Inten    --      6.9207                29.4450                23.4831

                     22                     23                     24
                      A                      A                      A
 Frequencies --   1085.0594              1140.5625              1152.7810
 Red. masses --      1.6870                 1.3109                 1.3350
 Frc consts  --      1.1702                 1.0048                 1.0453
 IR Inten    --     50.9465                16.5545                 5.3111

                     25                     26                     27
                      A                      A                      A
 Frequencies --   1173.3701              1178.0733              1191.6280
 Red. masses --      1.5468                 1.5274                 2.1621
 Frc consts  --      1.2547                 1.2490                 1.8089
 IR Inten    --     17.9954                61.5966                58.3693

                     28                     29                     30
                      A                      A                      A
 Frequencies --   1275.1723              1301.0928              1367.6203
 Red. masses --      2.9959                 1.7193                 1.4337
 Frc consts  --      2.8702                 1.7148                 1.5799
 IR Inten    --      4.1172                29.1197                50.2243

                     31                     32                     33
                      A                      A                      A
 Frequencies --   1392.6677              1438.0679              1452.8338
 Red. masses --      1.6073                 1.2423                 1.2187
 Frc consts  --      1.8367                 1.5137                 1.5155
 IR Inten    --     34.0646                50.4195                16.8413

                     34                     35                     36
                      A                      A                      A
 Frequencies --   1473.1729              1482.0474              1491.1631
 Red. masses --      1.1440                 1.0473                 1.1064
 Frc consts  --      1.4629                 1.3553                 1.4495
 IR Inten    --      7.7264                 6.0990                 4.3376

                     37                     38                     39
                      A                      A                      A
 Frequencies --   1492.2020              1516.2937              1527.1228
 Red. masses --      1.0696                 1.0595                 1.0953
 Frc consts  --      1.4032                 1.4352                 1.5049
 IR Inten    --      9.6545                23.9772                 4.8038

                     40                     41                     42
                      A                      A                      A
 Frequencies --   1550.0936              1637.0572              1686.8567
 Red. masses --      1.9981                 1.2018                 3.7777
 Frc consts  --      2.8287                 1.8976                 6.3334
 IR Inten    --    296.5838               109.8407               165.7580

                     43                     44                     45
                      A                      A                      A
 Frequencies --   2996.4541              3000.5493              3035.6888
 Red. masses --      1.0406                 1.0431                 1.0573
 Frc consts  --      5.5052                 5.5333                 5.7407
 IR Inten    --     58.0107                50.5786                49.9482

                     46                     47                     48
                      A                      A                      A
 Frequencies --   3045.2003              3055.0417              3079.3298
 Red. masses --      1.1028                 1.0971                 1.1072
 Frc consts  --      6.0250                 6.0331                 6.1855
 IR Inten    --     37.9191                35.2202                24.8656

                     49                     50                     51
                      A                      A                      A
 Frequencies --   3121.6095              3127.5835              3475.7230
 Red. masses --      1.0970                 1.0934                 1.0490
 Frc consts  --      6.2984                 6.3016                 7.4664
 IR Inten    --     17.6368                16.6114                 7.0287

                     52                     53                     54
                      A                      A                      A
 Frequencies --   3540.5170              3557.2343              3679.2384
 Red. masses --      1.0741                 1.0917                 1.0759
 Frc consts  --      7.9328                 8.1395                 8.5809
 IR Inten    --      2.2318                 2.2405                17.5125

 - Thermochemistry -
 -------------------
 Temperature   298.150 Kelvin.  Pressure   1.00000 Atm.
 Atom     1 has atomic number  6 and mass  12.00000

 Molecular mass:   116.10620 amu.
 Principal axes and moments of inertia in atomic units:
                           1         2         3
     Eigenvalues --   508.010381313.970671641.84765
           X            0.99993  -0.00523   0.01045
           Y            0.00519   0.99998   0.00394
           Z           -0.01047  -0.00388   0.99994
 This molecule is an asymmetric top.
 Rotational symmetry number  1.
 Warning -- assumption of classical behavior for rotation
           may cause significant error
 Rotational temperatures (Kelvin)      0.17050     0.06592     0.05275
 Rotational constants (GHZ):           3.55257     1.37350     1.09921
 Zero-point vibrational energy     465760.3 (Joules/Mol)
                                  111.31937 (Kcal/Mol)
 Warning -- explicit consideration of  14 degrees of freedom as
           vibrations may cause significant error
 Vibrational temperatures:     21.10   137.35   158.48   178.97   217.33
          (Kelvin)            261.51   338.78   406.22   432.32   541.40
                              616.96   637.00   843.15   870.34  1055.98
                             1077.93  1168.50  1289.38  1388.04  1455.30
                             1507.42  1561.16  1641.02  1658.59  1688.22
                             1694.98  1714.49  1834.69  1871.98  1967.70
                             2003.74  2069.06  2090.30  2119.57  2132.34
                             2145.45  2146.95  2181.61  2197.19  2230.24
                             2355.36  2427.01  4311.23  4317.12  4367.68
                             4381.36  4395.52  4430.47  4491.30  4499.90
                             5000.79  5094.01  5118.07  5293.60

 Zero-point correction=                           0.177399 (Hartree/Particle)
 Thermal correction to Energy=                    0.187747
 Thermal correction to Enthalpy=                  0.188691
 Thermal correction to Gibbs Free Energy=         0.140803
 Sum of electronic and zero-point Energies=           -378.491209
 Sum of electronic and thermal Energies=              -378.480861
 Sum of electronic and thermal Enthalpies=            -378.479917
 Sum of electronic and thermal Free Energies=         -378.527804

                     E (Thermal)             CV                S
                      KCal/Mol        Cal/Mol-Kelvin    Cal/Mol-Kelvin
 Total                  117.813             35.590            100.788
 Electronic               0.000              0.000              0.000
 Translational            0.889              2.981             40.163
 Rotational               0.889              2.981             28.485
 Vibrational            116.035             29.629             32.140
 Vibration     1          0.593              1.986              7.250
 Vibration     2          0.603              1.952              3.545
 Vibration     3          0.606              1.941              3.266
 Vibration     4          0.610              1.929              3.031
 Vibration     5          0.618              1.902              2.659
 Vibration     6          0.630              1.865              2.310
 Vibration     7          0.655              1.787              1.837
 Vibration     8          0.681              1.706              1.519
 Vibration     9          0.693              1.673              1.414
 Vibration    10          0.747              1.521              1.054
 Vibration    11          0.790              1.408              0.863
 Vibration    12          0.802              1.377              0.818
 Vibration    13          0.943              1.062              0.474
 Vibration    14          0.963              1.021              0.441

                           ! Non-Optimized Parameters !
 Normal termination of Gaussian 16 at Tue Jun  1 13:27:39 2021.
