 Gaussian 16, Revision A.03,
 Gaussian 16:  ES64L-G16RevA.03 25-Dec-2016

 -----------------------------
 # opt freq b3lyp/6-31g(2df,p)
 -----------------------------

 -------------------
 Title Card Required
 -------------------
 Symbolic Z-matrix:
 Charge =  0 Multiplicity = 1

 SCF Done:  E(RB3LYP) =  -438.805201731     A.U. after   15 cycles
 SCF Done:  E(RB3LYP) =  -438.830121191     A.U. after   12 cycles
 SCF Done:  E(RB3LYP) =  -438.830770452     A.U. after   11 cycles
 SCF Done:  E(RB3LYP) =  -438.830814931     A.U. after    9 cycles
 SCF Done:  E(RB3LYP) =  -438.830818090     A.U. after    8 cycles
 SCF Done:  E(RB3LYP) =  -438.830818418     A.U. after    7 cycles
 Optimization completed.
    -- Stationary point found.
 Normal termination of Gaussian 16 at Tue Jun  1 17:23:41 2021.

 ----------------------------------------------------------------------
 #N Geom=AllCheck Guess=TCheck SCRF=Check GenChk RB3LYP/6-31G(2df,p) Fr
 eq
 ----------------------------------------------------------------------

 Structure from the checkpoint file:  "CNdCpCpNCCCCtN.chk"
 -------------------
 Title Card Required
 -------------------
 Charge =  0 Multiplicity = 1

                         Standard orientation:
 ---------------------------------------------------------------------
 Center     Atomic      Atomic             Coordinates (Angstroms)
 Number     Number       Type             X           Y           Z
 ---------------------------------------------------------------------
      1          6           0       -4.362107   -0.678515    0.000005
      2          7           0       -2.941682   -0.968119   -0.000001
      3          6           0       -2.088225   -0.017117   -0.000012
      4          6           0       -2.368566    1.471541   -0.000017
      5          7           0       -0.753243   -0.363021    0.000003
      6          6           0        0.383406    0.525987   -0.000001
      7          6           0        1.679960   -0.285644    0.000022
      8          6           0        2.920297    0.626838    0.000019
      9          6           0        4.170110   -0.129712    0.000039
     10          7           0        5.150431   -0.741135   -0.000054
     11          1           0       -4.912704   -1.623839    0.000007
     12          1           0       -4.691584   -0.115875   -0.886859
     13          1           0       -4.691577   -0.115875    0.886872
     14          1           0       -3.439179    1.668868   -0.000015
     15          1           0       -1.931564    1.953399   -0.881323
     16          1           0       -1.931560    1.953406    0.881284
     17          1           0       -0.590620   -1.358137    0.000009
     18          1           0        0.377031    1.186574    0.881423
     19          1           0        0.377045    1.186548   -0.881445
     20          1           0        1.706987   -0.936220   -0.880830
     21          1           0        1.706972   -0.936195    0.880892
     22          1           0        2.911473    1.281515    0.879418
     23          1           0        2.911486    1.281493   -0.879397
 ---------------------------------------------------------------------

 SCF Done:  E(RB3LYP) =  -438.830818418     A.U. after    1 cycles

 The electronic state is 1-A.
 Alpha  occ. eigenvalues --  -14.34028 -14.33162 -14.28270 -10.24732 -10.24700
 Alpha  occ. eigenvalues --  -10.23961 -10.22515 -10.22129 -10.19412 -10.19072
 Alpha  occ. eigenvalues --   -0.95361  -0.90632  -0.87471  -0.82225  -0.74475
 Alpha  occ. eigenvalues --   -0.72650  -0.67221  -0.63103  -0.56636  -0.53153
 Alpha  occ. eigenvalues --   -0.51296  -0.48275  -0.47513  -0.46080  -0.43227
 Alpha  occ. eigenvalues --   -0.43003  -0.41861  -0.40459  -0.39471  -0.38852
 Alpha  occ. eigenvalues --   -0.37834  -0.37467  -0.35832  -0.32842  -0.32820
 Alpha  occ. eigenvalues --   -0.32045  -0.23129  -0.20922
 Alpha virt. eigenvalues --    0.02817   0.03158   0.03607   0.06647   0.08207
 Alpha virt. eigenvalues --    0.09423   0.10127   0.12006   0.13339   0.13977
 Alpha virt. eigenvalues --    0.15577   0.16055   0.17356   0.18053   0.18572

 Mulliken charges:
               1
     1  C   -0.316338
     2  N   -0.293319
     3  C    0.379457
     4  C   -0.492565
     5  N   -0.329764
     6  C   -0.124429
     7  C   -0.211750
     8  C   -0.340385
     9  C    0.259165
    10  N   -0.298558
    11  H    0.117431
    12  H    0.104913
    13  H    0.104913
    14  H    0.137970
    15  H    0.136794
    16  H    0.136794
    17  H    0.240093
    18  H    0.104342
    19  H    0.104342
    20  H    0.133732
    21  H    0.133731
    22  H    0.156712
    23  H    0.156717
 Sum of Mulliken charges =  -0.00000

 Dipole moment (field-independent basis, Debye):
    X=             -2.0536    Y=              3.5859    Z=              0.0001  Tot=              4.1323
 Quadrupole moment (field-independent basis, Debye-Ang):
   XX=            -89.0771   YY=            -61.3152   ZZ=            -60.4046
   XY=              3.3952   XZ=              0.0006   YZ=             -0.0001

  Exact polarizability: 140.100   1.205  85.758  -0.001   0.000  66.218
 Approx polarizability: 170.255  -0.727 133.069  -0.002   0.001 102.818

 ******    1 imaginary frequencies (negative Signs) ******

                      1                      2                      3
                      A                      A                      A
 Frequencies --   -117.3539                15.1538                44.6767
 Red. masses --      2.3999                 3.1689                 1.1079
 Frc consts  --      0.0195                 0.0004                 0.0013
 IR Inten    --      6.1627                 0.0318                 0.0226

                      4                      5                      6
                      A                      A                      A
 Frequencies --     71.3395                76.6115                94.8954
 Red. masses --      5.2768                 2.4793                 1.4126
 Frc consts  --      0.0158                 0.0086                 0.0075
 IR Inten    --      3.7934                 5.2800                 0.4643

                      7                      8                      9
                      A                      A                      A
 Frequencies --    121.6489               163.6995               229.1425
 Red. masses --      1.6908                 5.1900                 3.5151
 Frc consts  --      0.0147                 0.0819                 0.1087
 IR Inten    --      1.2776                 6.6201                 2.1312

                     10                     11                     12
                      A                      A                      A
 Frequencies --    267.6489               312.3758               340.6633
 Red. masses --      4.2045                 4.0983                 2.9894
 Frc consts  --      0.1775                 0.2356                 0.2044
 IR Inten    --      3.0704                 0.0772                 0.3646

                     13                     14                     15
                      A                      A                      A
 Frequencies --    393.4734               397.8555               516.3898
 Red. masses --      1.3610                 2.1320                 3.9767
 Frc consts  --      0.1241                 0.1988                 0.6248
 IR Inten    --     34.2263                 7.5217                 3.5384

                     16                     17                     18
                      A                      A                      A
 Frequencies --    556.1033               564.2830               606.2380
 Red. masses --      5.0623                 2.7582                 3.2205
 Frc consts  --      0.9224                 0.5175                 0.6974
 IR Inten    --      2.5816                16.3444                 8.0924

                     19                     20                     21
                      A                      A                      A
 Frequencies --    756.0626               809.7102               869.0944
 Red. masses --      1.1087                 3.9298                 1.2741
 Frc consts  --      0.3734                 1.5180                 0.5670
 IR Inten    --      1.9211                 4.1514                 0.3490

                     22                     23                     24
                      A                      A                      A
 Frequencies --    942.5561               996.4658              1043.7613
 Red. masses --      4.8257                 2.1708                 2.5192
 Frc consts  --      2.5260                 1.2700                 1.6170
 IR Inten    --      2.3309                 3.6603                 6.5728

                     25                     26                     27
                      A                      A                      A
 Frequencies --   1045.3749              1049.9397              1083.0522
 Red. masses --      1.6303                 4.8475                 2.3277
 Frc consts  --      1.0497                 3.1485                 1.6087
 IR Inten    --      2.1915                 9.3876                 6.4107

                     28                     29                     30
                      A                      A                      A
 Frequencies --   1111.9395              1122.2744              1160.0223
 Red. masses --      1.3681                 1.5679                 1.4724
 Frc consts  --      0.9966                 1.1635                 1.1674
 IR Inten    --      0.4784                 0.0563                45.2338

                     31                     32                     33
                      A                      A                      A
 Frequencies --   1180.6513              1212.0880              1284.6306
 Red. masses --      2.9540                 1.2042                 1.4226
 Frc consts  --      2.4261                 1.0424                 1.3832
 IR Inten    --     19.5340                 0.0832                 7.2943

                     34                     35                     36
                      A                      A                      A
 Frequencies --   1302.4511              1322.4623              1351.6102
 Red. masses --      1.1561                 1.0583                 1.5331
 Frc consts  --      1.1555                 1.0905                 1.6501
 IR Inten    --      0.5401                 0.0010               107.4635

                     37                     38                     39
                      A                      A                      A
 Frequencies --   1373.9118              1405.3097              1412.8651
 Red. masses --      1.5926                 1.3733                 1.7999
 Frc consts  --      1.7713                 1.5980                 2.1169
 IR Inten    --     37.3465                57.3530                57.8743

                     40                     41                     42
                      A                      A                      A
 Frequencies --   1444.3864              1470.2178              1473.1326
 Red. masses --      1.2055                 1.0814                 1.1147
 Frc consts  --      1.4818                 1.3773                 1.4253
 IR Inten    --     53.2571                 2.9947                 0.6032

                     43                     44                     45
                      A                      A                      A
 Frequencies --   1482.7387              1484.6608              1501.2968
 Red. masses --      1.6154                 1.0458                 1.0994
 Frc consts  --      2.0924                 1.3582                 1.4600
 IR Inten    --    107.9017                 8.7703                 4.4766

                     46                     47                     48
                      A                      A                      A
 Frequencies --   1502.9614              1514.6026              1534.0226
 Red. masses --      1.1283                 1.0449                 1.0843
 Frc consts  --      1.5017                 1.4123                 1.5034
 IR Inten    --      5.1619                 0.5054                13.4442

                     49                     50                     51
                      A                      A                      A
 Frequencies --   1731.0215              2365.6565              2965.6079
 Red. masses --      6.5789                12.6106                 1.0541
 Frc consts  --     11.6147                41.5804                 5.4620
 IR Inten    --    452.7590                10.6439                74.5105

                     52                     53                     54
                      A                      A                      A
 Frequencies --   2970.7591              2983.4530              3015.9979
 Red. masses --      1.0425                 1.1045                 1.1013
 Frc consts  --      5.4206                 5.7924                 5.9022
 IR Inten    --     75.9421                32.3305                52.3875

                     55                     56                     57
                      A                      A                      A
 Frequencies --   3036.9054              3041.5193              3048.9922
 Red. masses --      1.0582                 1.0410                 1.0586
 Frc consts  --      5.7499                 5.6740                 5.7983
 IR Inten    --      0.5300                11.3980                22.6329

                     58                     59                     60
                      A                      A                      A
 Frequencies --   3070.9242              3084.1653              3094.4497
 Red. masses --      1.1017                 1.0927                 1.0991
 Frc consts  --      6.1216                 6.1236                 6.2006
 IR Inten    --      0.0511                42.9339                 8.2298

                     61                     62                     63
                      A                      A                      A
 Frequencies --   3097.2430              3161.9158              3624.4904
 Red. masses --      1.1054                 1.0962                 1.0757
 Frc consts  --      6.2475                 6.4571                 8.3262
 IR Inten    --     24.7098                11.2451                20.2854

 - Thermochemistry -
 -------------------
 Temperature   298.150 Kelvin.  Pressure   1.00000 Atm.
 Atom     1 has atomic number  6 and mass  12.00000

 Molecular mass:   139.11095 amu.
 Principal axes and moments of inertia in atomic units:
                           1         2         3
     Eigenvalues --   335.597834691.402144971.00766
           X            1.00000   0.00103   0.00000
           Y           -0.00103   1.00000  -0.00000
           Z           -0.00000   0.00000   1.00000
 This molecule is an asymmetric top.
 Rotational symmetry number  1.
 Rotational temperatures (Kelvin)      0.25809     0.01846     0.01742
 Rotational constants (GHZ):           5.37769     0.38469     0.36305
    1 imaginary frequencies ignored.
 Zero-point vibrational energy     516245.8 (Joules/Mol)
                                  123.38570 (Kcal/Mol)
 Warning -- explicit consideration of  17 degrees of freedom as
           vibrations may cause significant error
 Vibrational temperatures:     21.80    64.28   102.64   110.23   136.53
          (Kelvin)            175.03   235.53   329.69   385.09   449.44
                              490.14   566.12   572.43   742.97   800.11
                              811.88   872.24  1087.81  1164.99  1250.43
                             1356.13  1433.69  1501.74  1504.06  1510.63
                             1558.27  1599.83  1614.70  1669.01  1698.69
                             1743.92  1848.30  1873.94  1902.73  1944.67
                             1976.75  2021.93  2032.80  2078.15  2115.32
                             2119.51  2133.33  2136.10  2160.03  2162.43
                             2179.18  2207.12  2490.55  3403.65  4266.85
                             4274.26  4292.52  4339.35  4369.43  4376.07
                             4386.82  4418.38  4437.43  4452.22  4456.24
                             4549.29  5214.83

 Zero-point correction=                           0.196628 (Hartree/Particle)
 Thermal correction to Energy=                    0.208608
 Thermal correction to Enthalpy=                  0.209552
 Thermal correction to Gibbs Free Energy=         0.156171
 Sum of electronic and zero-point Energies=           -438.634191
 Sum of electronic and thermal Energies=              -438.622210
 Sum of electronic and thermal Enthalpies=            -438.621266
 Sum of electronic and thermal Free Energies=         -438.674648

                     E (Thermal)             CV                S
                      KCal/Mol        Cal/Mol-Kelvin    Cal/Mol-Kelvin
 Total                  130.904             40.645            112.351
 Electronic               0.000              0.000              0.000
 Translational            0.889              2.981             40.702
 Rotational               0.889              2.981             30.438
 Vibrational            129.126             34.684             41.211
 Vibration     1          0.593              1.986              7.185
 Vibration     2          0.595              1.980              5.040
 Vibration     3          0.598              1.968              4.116
 Vibration     4          0.599              1.965              3.976
 Vibration     5          0.603              1.953              3.557
 Vibration     6          0.609              1.931              3.074
 Vibration     7          0.623              1.887              2.507
 Vibration     8          0.652              1.797              1.886
 Vibration     9          0.673              1.733              1.611
 Vibration    10          0.701              1.650              1.350
 Vibration    11          0.720              1.594              1.209
 Vibration    12          0.761              1.484              0.987
 Vibration    13          0.764              1.475              0.971
 Vibration    14          0.871              1.214              0.618
 Vibration    15          0.912              1.126              0.532
 Vibration    16          0.920              1.109              0.515
 Vibration    17          0.965              1.019              0.439

 Optimization completed.
    -- Stationary point found.
 Normal termination of Gaussian 16 at Tue Jun  1 18:01:05 2021.
