 Gaussian 16, Revision A.03,
 Gaussian 16:  ES64L-G16RevA.03 25-Dec-2016

 -----------------------------
 # opt freq b3lyp/6-31g(2df,p)
 -----------------------------

 -------------------
 Title Card Required
 -------------------
 Symbolic Z-matrix:
 Charge =  0 Multiplicity = 1

 SCF Done:  E(RB3LYP) =  -378.603962797     A.U. after   13 cycles
 SCF Done:  E(RB3LYP) =  -378.611625002     A.U. after   12 cycles
 SCF Done:  E(RB3LYP) =  -378.617475975     A.U. after   13 cycles
 SCF Done:  E(RB3LYP) =  -378.621910098     A.U. after   13 cycles
 SCF Done:  E(RB3LYP) =  -378.622648957     A.U. after   10 cycles
 SCF Done:  E(RB3LYP) =  -378.623074052     A.U. after   11 cycles
 SCF Done:  E(RB3LYP) =  -378.623742650     A.U. after   12 cycles
 SCF Done:  E(RB3LYP) =  -378.624411173     A.U. after   11 cycles
 SCF Done:  E(RB3LYP) =  -378.625842247     A.U. after   11 cycles
 SCF Done:  E(RB3LYP) =  -378.626079927     A.U. after   11 cycles
 SCF Done:  E(RB3LYP) =  -378.626178946     A.U. after   10 cycles
 SCF Done:  E(RB3LYP) =  -378.626201990     A.U. after    9 cycles
 SCF Done:  E(RB3LYP) =  -378.626211540     A.U. after    9 cycles
 SCF Done:  E(RB3LYP) =  -378.626215031     A.U. after    9 cycles
 SCF Done:  E(RB3LYP) =  -378.626217641     A.U. after    8 cycles
 SCF Done:  E(RB3LYP) =  -378.626217967     A.U. after    7 cycles
 Optimization completed.
    -- Stationary point found.
 Normal termination of Gaussian 16 at Tue Jun  1 19:51:16 2021.

 ----------------------------------------------------------------------
 #N Geom=AllCheck Guess=TCheck SCRF=Check GenChk RB3LYP/6-31G(2df,p) Fr
 eq
 ----------------------------------------------------------------------

 Structure from the checkpoint file:  "CNdCNNpCpCN.chk"
 -------------------
 Title Card Required
 -------------------
 Charge =  0 Multiplicity = 1

                         Standard orientation:
 ---------------------------------------------------------------------
 Center     Atomic      Atomic             Coordinates (Angstroms)
 Number     Number       Type             X           Y           Z
 ---------------------------------------------------------------------
      1          6           0       -3.607454   -0.472205   -0.268174
      2          7           0       -2.456599    0.035424    0.446721
      3          6           0       -1.368445    0.135919   -0.196749
      4          7           0       -0.237571    0.703298    0.348126
      5          7           0        1.004808    0.361499   -0.204405
      6          6           0        1.877874    1.529346   -0.255223
      7          6           0        1.607591   -0.785014    0.483849
      8          7           0        2.750830   -1.258790   -0.276608
      9          1           0       -4.022666   -1.340052    0.259046
     10          1           0       -3.389981   -0.773007   -1.307051
     11          1           0       -4.400148    0.286217   -0.296058
     12          1           0       -1.215070   -0.167913   -1.241355
     13          1           0       -0.274693    0.862017    1.353835
     14          1           0        1.414628    2.295342   -0.879927
     15          1           0        2.833331    1.226393   -0.684657
     16          1           0        2.064212    1.957979    0.746254
     17          1           0        0.799066   -1.520233    0.611844
     18          1           0        1.967587   -0.509589    1.493811
     19          1           0        2.437864   -1.745945   -1.110068
     20          1           0        3.298212   -1.909495    0.275259
 ---------------------------------------------------------------------

 SCF Done:  E(RB3LYP) =  -378.626217967     A.U. after    1 cycles

 The electronic state is 1-A.
 Alpha  occ. eigenvalues --  -14.35820 -14.35605 -14.31952 -14.28958 -10.23743
 Alpha  occ. eigenvalues --  -10.23312 -10.19601 -10.19001  -1.00137  -0.90973
 Alpha  occ. eigenvalues --   -0.88203  -0.80425  -0.69379  -0.67702  -0.61176
 Alpha  occ. eigenvalues --   -0.59279  -0.52498  -0.49847  -0.47461  -0.45847
 Alpha  occ. eigenvalues --   -0.44638  -0.42153  -0.41947  -0.41150  -0.38771
 Alpha  occ. eigenvalues --   -0.37632  -0.37130  -0.33107  -0.25268  -0.24175
 Alpha  occ. eigenvalues --   -0.23688  -0.21544
 Alpha virt. eigenvalues --    0.03729   0.08118   0.09189   0.12473   0.13125
 Alpha virt. eigenvalues --    0.14228   0.14462   0.15317   0.16396   0.17426
 Alpha virt. eigenvalues --    0.17783   0.18562   0.18759   0.19670   0.22464

 Mulliken charges:
               1
     1  C   -0.304760
     2  N   -0.239499
     3  C    0.126555
     4  N   -0.274750
     5  N   -0.060951
     6  C   -0.301256
     7  C   -0.091683
     8  N   -0.499413
     9  H    0.116107
    10  H    0.090397
    11  H    0.118758
    12  H    0.084517
    13  H    0.229236
    14  H    0.124943
    15  H    0.144559
    16  H    0.088953
    17  H    0.099229
    18  H    0.081815
    19  H    0.233908
    20  H    0.233336
 Sum of Mulliken charges =  -0.00000

 Dipole moment (field-independent basis, Debye):
    X=              1.8215    Y=             -1.4601    Z=             -0.1184  Tot=              2.3375
 Quadrupole moment (field-independent basis, Debye-Ang):
   XX=            -51.7565   YY=            -46.2249   ZZ=            -48.9765
   XY=             -1.9051   XZ=              4.6729   YZ=              0.6726

  Exact polarizability: 108.225   4.554  65.691  -0.460   1.875  64.318
 Approx polarizability: 134.111   6.761  89.969  -6.273   3.213  99.437

                      1                      2                      3
                      A                      A                      A
 Frequencies --     54.5043                98.3130               130.1368
 Red. masses --      3.8393                 2.5963                 1.5765
 Frc consts  --      0.0067                 0.0148                 0.0157
 IR Inten    --      2.8177                 1.1648                 2.2361

                      4                      5                      6
                      A                      A                      A
 Frequencies --    176.9421               195.9186               231.1074
 Red. masses --      2.3835                 1.6058                 1.1268
 Frc consts  --      0.0440                 0.0363                 0.0355
 IR Inten    --      8.2558                 4.5232                19.5236

                      7                      8                      9
                      A                      A                      A
 Frequencies --    249.6144               295.1568               310.5042
 Red. masses --      1.1711                 2.5481                 2.2522
 Frc consts  --      0.0430                 0.1308                 0.1279
 IR Inten    --     25.1166                 2.3097                 7.9483

                     10                     11                     12
                      A                      A                      A
 Frequencies --    349.8738               397.0526               440.7801
 Red. masses --      2.4556                 3.5435                 3.0380
 Frc consts  --      0.1771                 0.3291                 0.3478
 IR Inten    --      1.5394                 2.9042                 5.5611

                     13                     14                     15
                      A                      A                      A
 Frequencies --    534.0185               599.1993               655.4165
 Red. masses --      3.6942                 3.1542                 1.4620
 Frc consts  --      0.6207                 0.6672                 0.3700
 IR Inten    --     26.3776                21.3429                96.1839

                     16                     17                     18
                      A                      A                      A
 Frequencies --    818.6723               886.8443               981.1058
 Red. masses --      1.4532                 2.6630                 1.5329
 Frc consts  --      0.5738                 1.2340                 0.8694
 IR Inten    --    160.0090                37.1781                 7.6069

                     19                     20                     21
                      A                      A                      A
 Frequencies --   1006.8322              1040.5658              1081.7106
 Red. masses --      1.4158                 3.7656                 2.0924
 Frc consts  --      0.8456                 2.4023                 1.4425
 IR Inten    --      7.6667                11.0126                14.6393

                     22                     23                     24
                      A                      A                      A
 Frequencies --   1099.8835              1142.0393              1148.1652
 Red. masses --      2.5088                 1.3556                 1.4905
 Frc consts  --      1.7882                 1.0417                 1.1577
 IR Inten    --     29.4701                 3.6584                 7.1622

                     25                     26                     27
                      A                      A                      A
 Frequencies --   1150.1122              1202.7137              1231.1942
 Red. masses --      1.3519                 2.2607                 2.4955
 Frc consts  --      1.0536                 1.9267                 2.2287
 IR Inten    --      4.3934                 4.7961                36.9386

                     28                     29                     30
                      A                      A                      A
 Frequencies --   1272.6169              1294.8604              1349.8751
 Red. masses --      1.9500                 2.0249                 1.3195
 Frc consts  --      1.8607                 2.0004                 1.4166
 IR Inten    --     18.5350                83.3139                15.5006

                     31                     32                     33
                      A                      A                      A
 Frequencies --   1353.2691              1424.4289              1442.2499
 Red. masses --      1.2998                 1.2032                 1.3895
 Frc consts  --      1.4025                 1.4383                 1.7030
 IR Inten    --      2.1767                 7.0404                19.8791

                     34                     35                     36
                      A                      A                      A
 Frequencies --   1449.7523              1476.9242              1480.4551
 Red. masses --      1.1878                 1.2820                 1.0441
 Frc consts  --      1.4709                 1.6476                 1.3483
 IR Inten    --     41.9588                11.0619                 1.9763

                     37                     38                     39
                      A                      A                      A
 Frequencies --   1496.1887              1503.8694              1510.9339
 Red. masses --      1.1032                 1.0485                 1.1453
 Frc consts  --      1.4551                 1.3971                 1.5405
 IR Inten    --     19.1412                 5.8134                 0.5041

                     40                     41                     42
                      A                      A                      A
 Frequencies --   1519.3701              1646.8129              1762.3955
 Red. masses --      1.1162                 1.1002                 6.5619
 Frc consts  --      1.5182                 1.7579                12.0084
 IR Inten    --      0.6527                27.3173               363.8242

                     43                     44                     45
                      A                      A                      A
 Frequencies --   2921.5732              2946.9356              2958.6231
 Red. masses --      1.0672                 1.0598                 1.0482
 Frc consts  --      5.3671                 5.4228                 5.4060
 IR Inten    --     63.6065                91.6537                81.8419

                     46                     47                     48
                      A                      A                      A
 Frequencies --   2994.7063              3032.3547              3042.5831
 Red. masses --      1.0928                 1.0862                 1.0850
 Frc consts  --      5.7741                 5.8846                 5.9179
 IR Inten    --     52.9099                43.6996                54.9740

                     49                     50                     51
                      A                      A                      A
 Frequencies --   3058.2733              3098.7768              3155.2104
 Red. masses --      1.1008                 1.0720                 1.1032
 Frc consts  --      6.0663                 6.0649                 6.4709
 IR Inten    --     33.0099                23.8814                 8.9161

                     52                     53                     54
                      A                      A                      A
 Frequencies --   3463.6120              3508.8154              3596.3280
 Red. masses --      1.0741                 1.0492                 1.0931
 Frc consts  --      7.5917                 7.6108                 8.3300
 IR Inten    --     12.4973                 0.4098                 1.7323

 - Thermochemistry -
 -------------------
 Temperature   298.150 Kelvin.  Pressure   1.00000 Atm.
 Atom     1 has atomic number  6 and mass  12.00000

 Molecular mass:   116.10620 amu.
 Principal axes and moments of inertia in atomic units:
                           1         2         3
     Eigenvalues --   409.211542015.349202267.20322
           X            0.99988   0.01032   0.01112
           Y           -0.01037   0.99994   0.00473
           Z           -0.01107  -0.00484   0.99993
 This molecule is an asymmetric top.
 Rotational symmetry number  1.
 Rotational temperatures (Kelvin)      0.21166     0.04298     0.03820
 Rotational constants (GHZ):           4.41029     0.89550     0.79602
 Zero-point vibrational energy     462178.3 (Joules/Mol)
                                  110.46326 (Kcal/Mol)
 Warning -- explicit consideration of  14 degrees of freedom as
           vibrations may cause significant error
 Vibrational temperatures:     78.42   141.45   187.24   254.58   281.88
          (Kelvin)            332.51   359.14   424.66   446.75   503.39
                              571.27   634.18   768.33   862.11   943.00
                             1177.89  1275.97  1411.59  1448.61  1497.14
                             1556.34  1582.49  1643.14  1651.95  1654.75
                             1730.44  1771.41  1831.01  1863.02  1942.17
                             1947.05  2049.44  2075.08  2085.87  2124.96
                             2130.04  2152.68  2163.73  2173.90  2186.03
                             2369.40  2535.69  4203.49  4239.98  4256.80
                             4308.71  4362.88  4377.60  4400.17  4458.45
                             4539.64  4983.37  5048.40  5174.31

 Zero-point correction=                           0.176034 (Hartree/Particle)
 Thermal correction to Energy=                    0.186023
 Thermal correction to Enthalpy=                  0.186967
 Thermal correction to Gibbs Free Energy=         0.140996
 Sum of electronic and zero-point Energies=           -378.450184
 Sum of electronic and thermal Energies=              -378.440195
 Sum of electronic and thermal Enthalpies=            -378.439251
 Sum of electronic and thermal Free Energies=         -378.485222

                     E (Thermal)             CV                S
                      KCal/Mol        Cal/Mol-Kelvin    Cal/Mol-Kelvin
 Total                  116.731             35.281             96.756
 Electronic               0.000              0.000              0.000
 Translational            0.889              2.981             40.163
 Rotational               0.889              2.981             29.015
 Vibrational            114.954             29.319             27.577
 Vibration     1          0.596              1.976              4.647
 Vibration     2          0.604              1.950              3.487
 Vibration     3          0.612              1.923              2.944
 Vibration     4          0.628              1.871              2.360
 Vibration     5          0.636              1.846              2.171
 Vibration     6          0.653              1.793              1.870
 Vibration     7          0.662              1.763              1.733
 Vibration     8          0.689              1.683              1.444
 Vibration     9          0.699              1.654              1.360
 Vibration    10          0.727              1.576              1.167
 Vibration    11          0.764              1.476              0.974
 Vibration    12          0.801              1.381              0.824
 Vibration    13          0.889              1.175              0.578
 Vibration    14          0.957              1.033              0.451

 Optimization completed.
    -- Stationary point found.
 Normal termination of Gaussian 16 at Tue Jun  1 20:14:17 2021.
