 Gaussian 16, Revision A.03,
 Gaussian 16:  ES64L-G16RevA.03 25-Dec-2016

 -----------------------------
 # opt freq b3lyp/6-31g(2df,p)
 -----------------------------

 -------------------
 Title Card Required
 -------------------
 Symbolic Z-matrix:
 Charge =  0 Multiplicity = 1

 SCF Done:  E(RB3LYP) =  -358.953253322     A.U. after   14 cycles
 SCF Done:  E(RB3LYP) =  -358.955976388     A.U. after   12 cycles
 SCF Done:  E(RB3LYP) =  -358.956534908     A.U. after   12 cycles
 SCF Done:  E(RB3LYP) =  -358.956570884     A.U. after   10 cycles
 SCF Done:  E(RB3LYP) =  -358.956575317     A.U. after    9 cycles
 SCF Done:  E(RB3LYP) =  -358.956575756     A.U. after    7 cycles
 Optimization completed.
    -- Stationary point found.
 Normal termination of Gaussian 16 at Tue Jun  1 14:51:23 2021.

 ----------------------------------------------------------------------
 #N Geom=AllCheck Guess=TCheck SCRF=Check GenChk RB3LYP/6-31G(2df,p) Fr
 eq
 ----------------------------------------------------------------------

 Structure from the checkpoint file:  "CNdCpCpNdCCtN.chk"
 -------------------
 Title Card Required
 -------------------
 Charge =  0 Multiplicity = 1

                         Standard orientation:
 ---------------------------------------------------------------------
 Center     Atomic      Atomic             Coordinates (Angstroms)
 Number     Number       Type             X           Y           Z
 ---------------------------------------------------------------------
      1          6           0        3.155842   -0.589423   -0.000003
      2          7           0        1.740067   -0.905207    0.000002
      3          6           0        0.868045    0.022383    0.000004
      4          6           0        1.131676    1.514576    0.000000
      5          7           0       -0.465194   -0.456016    0.000002
      6          6           0       -1.441548    0.363679   -0.000001
      7          6           0       -2.792654   -0.125176   -0.000001
      8          7           0       -3.900957   -0.458428   -0.000001
      9          1           0        3.724462   -1.521692   -0.000004
     10          1           0        3.452269   -0.012723    0.886511
     11          1           0        3.452264   -0.012724   -0.886519
     12          1           0        2.198862    1.730388   -0.000000
     13          1           0        0.691703    1.991667    0.882601
     14          1           0        0.691703    1.991663   -0.882602
     15          1           0       -1.356843    1.454740   -0.000003
 ---------------------------------------------------------------------

 SCF Done:  E(RB3LYP) =  -358.956575756     A.U. after    1 cycles

 The electronic state is 1-A.
 Alpha  occ. eigenvalues --  -14.36561 -14.34957 -14.33979 -10.28385 -10.27273
 Alpha  occ. eigenvalues --  -10.23535 -10.21940 -10.21312  -0.98365  -0.92485
 Alpha  occ. eigenvalues --   -0.90712  -0.76729  -0.73388  -0.68884  -0.57425
 Alpha  occ. eigenvalues --   -0.53938  -0.50114  -0.47438  -0.47235  -0.43370
 Alpha  occ. eigenvalues --   -0.42570  -0.40783  -0.40682  -0.37550  -0.34986
 Alpha  occ. eigenvalues --   -0.34792  -0.29352  -0.28709  -0.26343
 Alpha virt. eigenvalues --   -0.09671   0.01269   0.02032   0.07370   0.10311
 Alpha virt. eigenvalues --    0.10915   0.12685   0.14860   0.15240   0.15829
 Alpha virt. eigenvalues --    0.16669   0.17306   0.18163   0.21162   0.27725

 Mulliken charges:
               1
     1  C   -0.330714
     2  N   -0.199076
     3  C    0.363531
     4  C   -0.505589
     5  N   -0.194148
     6  C   -0.105438
     7  C    0.288420
     8  N   -0.297992
     9  H    0.138624
    10  H    0.132011
    11  H    0.132011
    12  H    0.139756
    13  H    0.149375
    14  H    0.149375
    15  H    0.139854
 Sum of Mulliken charges =  -0.00000

 Dipole moment (field-independent basis, Debye):
    X=              4.1545    Y=              4.0794    Z=             -0.0000  Tot=              5.8225
 Quadrupole moment (field-independent basis, Debye-Ang):
   XX=            -56.4427   YY=            -47.7522   ZZ=            -45.8899
   XY=             -2.6669   XZ=             -0.0000   YZ=              0.0000

  Exact polarizability: 136.123  -7.016  62.023   0.000  -0.000  43.518
 Approx polarizability: 207.164 -22.035  99.911   0.000  -0.000  67.205

 ******    1 imaginary frequencies (negative Signs) ******

                      1                      2                      3
                      A                      A                      A
 Frequencies --    -45.9238                29.0272               110.9735
 Red. masses --      1.0542                 2.4697                 4.7828
 Frc consts  --      0.0013                 0.0012                 0.0347
 IR Inten    --      0.1919                12.4414                 1.5907

                      4                      5                      6
                      A                      A                      A
 Frequencies --    124.4860               173.1468               281.7113
 Red. masses --      6.3762                 1.1114                 4.5972
 Frc consts  --      0.0582                 0.0196                 0.2150
 IR Inten    --      2.0310                 1.3336                 6.8936

                      7                      8                      9
                      A                      A                      A
 Frequencies --    314.7746               335.7137               447.9077
 Red. masses --      3.7465                 3.0921                 6.6290
 Frc consts  --      0.2187                 0.2053                 0.7836
 IR Inten    --      0.6216                 0.3586                 0.0637

                     10                     11                     12
                      A                      A                      A
 Frequencies --    452.1948               510.7770               589.8053
 Red. masses --      4.3658                 3.8184                 3.5064
 Frc consts  --      0.5260                 0.5869                 0.7187
 IR Inten    --      0.0529                 0.1828                 2.8594

                     13                     14                     15
                      A                      A                      A
 Frequencies --    650.1268               813.9452               958.3807
 Red. masses --      4.2758                 5.1614                 1.5501
 Frc consts  --      1.0648                 2.0147                 0.8388
 IR Inten    --      2.6238                 2.4493                 6.7929

                     16                     17                     18
                      A                      A                      A
 Frequencies --    990.6490              1012.5544              1050.5723
 Red. masses --      1.9969                 5.5674                 1.6620
 Frc consts  --      1.1547                 3.3631                 1.0808
 IR Inten    --      3.5422                11.9573                 0.1879

                     19                     20                     21
                      A                      A                      A
 Frequencies --   1081.8036              1089.0651              1160.5315
 Red. masses --      2.7649                 1.4178                 1.6968
 Frc consts  --      1.9064                 0.9907                 1.3464
 IR Inten    --     15.5707                 0.5936                40.1334

                     22                     23                     24
                      A                      A                      A
 Frequencies --   1239.7869              1376.1489              1398.7921
 Red. masses --      3.9775                 1.3059                 1.2395
 Frc consts  --      3.6020                 1.4571                 1.4290
 IR Inten    --     46.5182                 1.9954                19.4873

                     25                     26                     27
                      A                      A                      A
 Frequencies --   1423.5006              1472.1911              1483.9693
 Red. masses --      1.1527                 1.0737                 1.0448
 Frc consts  --      1.3762                 1.3711                 1.3556
 IR Inten    --     29.6414                 8.8108                10.5324

                     28                     29                     30
                      A                      A                      A
 Frequencies --   1498.4775              1512.7757              1643.1935
 Red. masses --      1.0556                 1.0443                 8.3016
 Frc consts  --      1.3965                 1.4081                13.2066
 IR Inten    --      0.2984                 1.8241                36.6140

                     31                     32                     33
                      A                      A                      A
 Frequencies --   1735.5646              2344.0558              2999.9987
 Red. masses --      8.8678                12.6477                 1.0388
 Frc consts  --     15.7379                40.9448                 5.5081
 IR Inten    --     22.0533                 0.5122                31.1011

                     34                     35                     36
                      A                      A                      A
 Frequencies --   3040.3482              3056.5629              3071.7953
 Red. masses --      1.0417                 1.1008                 1.0836
 Frc consts  --      5.6736                 6.0595                 6.0245
 IR Inten    --      3.8967                22.3718                15.7805

                     37                     38                     39
                      A                      A                      A
 Frequencies --   3094.9890              3113.5080              3159.0076
 Red. masses --      1.0990                 1.0967                 1.0959
 Frc consts  --      6.2025                 6.2635                 6.4437
 IR Inten    --      6.0979                33.1315                 7.5144

 - Thermochemistry -
 -------------------
 Temperature   298.150 Kelvin.  Pressure   1.00000 Atm.
 Atom     1 has atomic number  6 and mass  12.00000

 Molecular mass:   109.06400 amu.
 Principal axes and moments of inertia in atomic units:
                           1         2         3
     Eigenvalues --   246.954862029.521282253.94786
           X            1.00000  -0.00102  -0.00000
           Y            0.00102   1.00000   0.00000
           Z            0.00000  -0.00000   1.00000
 This molecule is an asymmetric top.
 Rotational symmetry number  1.
 Rotational temperatures (Kelvin)      0.35073     0.04268     0.03843
 Rotational constants (GHZ):           7.30798     0.88924     0.80070
    1 imaginary frequencies ignored.
 Zero-point vibrational energy     304107.5 (Joules/Mol)
                                   72.68345 (Kcal/Mol)
 Warning -- explicit consideration of  11 degrees of freedom as
           vibrations may cause significant error
 Vibrational temperatures:     41.76   159.67   179.11   249.12   405.32
          (Kelvin)            452.89   483.02   644.44   650.61   734.89
                              848.60   935.39  1171.09  1378.90  1425.32
                             1456.84  1511.54  1556.47  1566.92  1669.75
                             1783.78  1979.97  2012.55  2048.10  2118.15
                             2135.10  2155.97  2176.55  2364.19  2497.09
                             3372.57  4316.33  4374.38  4397.71  4419.63
                             4453.00  4479.64  4545.11

 Zero-point correction=                           0.115828 (Hartree/Particle)
 Thermal correction to Energy=                    0.124169
 Thermal correction to Enthalpy=                  0.125114
 Thermal correction to Gibbs Free Energy=         0.081819
 Sum of electronic and zero-point Energies=           -358.840747
 Sum of electronic and thermal Energies=              -358.832406
 Sum of electronic and thermal Enthalpies=            -358.831462
 Sum of electronic and thermal Free Energies=         -358.874757

                     E (Thermal)             CV                S
                      KCal/Mol        Cal/Mol-Kelvin    Cal/Mol-Kelvin
 Total                   77.918             28.412             91.122
 Electronic               0.000              0.000              0.000
 Translational            0.889              2.981             39.977
 Rotational               0.889              2.981             28.515
 Vibrational             76.140             22.450             22.631
 Vibration     1          0.593              1.984              5.895
 Vibration     2          0.607              1.940              3.252
 Vibration     3          0.610              1.929              3.030
 Vibration     4          0.627              1.876              2.401
 Vibration     5          0.681              1.707              1.523
 Vibration     6          0.702              1.645              1.337
 Vibration     7          0.717              1.604              1.232
 Vibration     8          0.807              1.366              0.802
 Vibration     9          0.811              1.356              0.789
 Vibration    10          0.866              1.226              0.632
 Vibration    11          0.947              1.054              0.468

 Optimization completed.
    -- Stationary point found.
 Normal termination of Gaussian 16 at Tue Jun  1 15:06:06 2021.
