 Gaussian 16, Revision A.03,
 Gaussian 16:  ES64L-G16RevA.03 25-Dec-2016

 -----------------------------
 # opt freq b3lyp/6-31g(2df,p)
 -----------------------------

 -------------------
 Title Card Required
 -------------------
 Symbolic Z-matrix:
 Charge =  0 Multiplicity = 1

 SCF Done:  E(RB3LYP) =  -323.299703345     A.U. after   13 cycles
 SCF Done:  E(RB3LYP) =  -323.306135962     A.U. after   12 cycles
 SCF Done:  E(RB3LYP) =  -323.306944572     A.U. after   10 cycles
 SCF Done:  E(RB3LYP) =  -323.307578118     A.U. after   11 cycles
 SCF Done:  E(RB3LYP) =  -323.307991953     A.U. after   12 cycles
 SCF Done:  E(RB3LYP) =  -323.308443158     A.U. after   11 cycles
 SCF Done:  E(RB3LYP) =  -323.309471473     A.U. after   12 cycles
 SCF Done:  E(RB3LYP) =  -323.310158281     A.U. after   11 cycles
 SCF Done:  E(RB3LYP) =  -323.310944738     A.U. after   11 cycles
 SCF Done:  E(RB3LYP) =  -323.311728405     A.U. after   11 cycles
 SCF Done:  E(RB3LYP) =  -323.311749827     A.U. after   11 cycles
 SCF Done:  E(RB3LYP) =  -323.311815258     A.U. after   10 cycles
 SCF Done:  E(RB3LYP) =  -323.311819733     A.U. after    8 cycles
 SCF Done:  E(RB3LYP) =  -323.311821553     A.U. after    8 cycles
 SCF Done:  E(RB3LYP) =  -323.311822236     A.U. after    7 cycles
 SCF Done:  E(RB3LYP) =  -323.311822651     A.U. after    7 cycles
 SCF Done:  E(RB3LYP) =  -323.311822695     A.U. after    7 cycles
 SCF Done:  E(RB3LYP) =  -323.311822713     A.U. after    7 cycles
 SCF Done:  E(RB3LYP) =  -323.311822734     A.U. after    7 cycles
 Optimization completed.
    -- Stationary point found.
 Normal termination of Gaussian 16 at Tue Jun  1 11:36:02 2021.

 ----------------------------------------------------------------------
 #N Geom=AllCheck Guess=TCheck SCRF=Check GenChk RB3LYP/6-31G(2df,p) Fr
 eq
 ----------------------------------------------------------------------

 Structure from the checkpoint file:  "CNdCNCpCpN.chk"
 -------------------
 Title Card Required
 -------------------
 Charge =  0 Multiplicity = 1

                         Standard orientation:
 ---------------------------------------------------------------------
 Center     Atomic      Atomic             Coordinates (Angstroms)
 Number     Number       Type             X           Y           Z
 ---------------------------------------------------------------------
      1          6           0        3.296884    0.202181    0.022336
      2          7           0        2.074736   -0.567671   -0.042974
      3          6           0        0.978030    0.073422   -0.006942
      4          7           0       -0.240653   -0.543937   -0.142347
      5          6           0       -1.499451   -0.010053    0.363022
      6          6           0       -1.749453    1.421151   -0.129682
      7          7           0       -2.516273   -0.974997   -0.050932
      8          1           0        3.911861   -0.140337    0.863989
      9          1           0        3.135929    1.288330    0.136888
     10          1           0        3.893296    0.044635   -0.885525
     11          1           0        0.924410    1.166328    0.093817
     12          1           0       -0.195320   -1.553756   -0.091202
     13          1           0       -1.516819   -0.006245    1.466275
     14          1           0       -1.716752    1.455349   -1.223790
     15          1           0       -1.017344    2.135515    0.259150
     16          1           0       -2.737998    1.751118    0.204111
     17          1           0       -2.660384   -0.901885   -1.055712
     18          1           0       -3.401603   -0.753017    0.393367
 ---------------------------------------------------------------------

 SCF Done:  E(RB3LYP) =  -323.311822734     A.U. after    1 cycles

 The electronic state is 1-A.
 Alpha  occ. eigenvalues --  -14.33227 -14.32008 -14.28696 -10.25272 -10.23335
 Alpha  occ. eigenvalues --  -10.18823 -10.18474  -0.95313  -0.89804  -0.84604
 Alpha  occ. eigenvalues --   -0.73524  -0.68154  -0.61486  -0.58089  -0.52587
 Alpha  occ. eigenvalues --   -0.47620  -0.46619  -0.43973  -0.42428  -0.41306
 Alpha  occ. eigenvalues --   -0.40975  -0.38798  -0.37564  -0.36905  -0.32510
 Alpha  occ. eigenvalues --   -0.25447  -0.23575  -0.21215
 Alpha virt. eigenvalues --    0.03845   0.07714   0.10470   0.11825   0.12820
 Alpha virt. eigenvalues --    0.13736   0.15041   0.15594   0.17617   0.18129
 Alpha virt. eigenvalues --    0.18595   0.18898   0.21276   0.22740   0.24779

 Mulliken charges:
               1
     1  C   -0.305764
     2  N   -0.238420
     3  C    0.107495
     4  N   -0.283818
     5  C    0.081263
     6  C   -0.387971
     7  N   -0.512313
     8  H    0.116740
     9  H    0.086641
    10  H    0.117014
    11  H    0.075555
    12  H    0.245962
    13  H    0.083186
    14  H    0.122246
    15  H    0.122984
    16  H    0.111083
    17  H    0.227935
    18  H    0.230184
 Sum of Mulliken charges =  -0.00000

 Dipole moment (field-independent basis, Debye):
    X=             -2.4838    Y=              1.9769    Z=              0.1949  Tot=              3.1805
 Quadrupole moment (field-independent basis, Debye-Ang):
   XX=            -39.7493   YY=            -46.3083   ZZ=            -43.4894
   XY=              1.2320   XZ=              0.6898   YZ=              0.5678

  Exact polarizability: 101.085   0.028  61.169  -0.958   1.320  50.694
 Approx polarizability: 126.431  -3.642  89.420  -1.170   3.177  75.932

                      1                      2                      3
                      A                      A                      A
 Frequencies --     52.3603               106.5900               146.8886
 Red. masses --      2.4434                 2.0769                 3.1538
 Frc consts  --      0.0039                 0.0139                 0.0401
 IR Inten    --      3.3376                 3.2163                 1.8238

                      4                      5                      6
                      A                      A                      A
 Frequencies --    199.2684               246.9163               263.1213
 Red. masses --      1.5030                 1.2287                 1.0918
 Frc consts  --      0.0352                 0.0441                 0.0445
 IR Inten    --      3.6601                 5.6394                28.1615

                      7                      8                      9
                      A                      A                      A
 Frequencies --    311.6380               345.8272               368.0007
 Red. masses --      2.0488                 2.8296                 2.7791
 Frc consts  --      0.1172                 0.1994                 0.2217
 IR Inten    --      3.5795                10.8633                21.3402

                     10                     11                     12
                      A                      A                      A
 Frequencies --    460.6319               525.3281               596.4993
 Red. masses --      2.5278                 2.7722                 2.6045
 Frc consts  --      0.3160                 0.4507                 0.5460
 IR Inten    --      6.0712                 6.0071                 7.1060

                     13                     14                     15
                      A                      A                      A
 Frequencies --    703.7422               847.1407               892.5283
 Red. masses --      1.3445                 2.7028                 1.3767
 Frc consts  --      0.3923                 1.1428                 0.6462
 IR Inten    --    106.4502                25.0381               143.1271

                     16                     17                     18
                      A                      A                      A
 Frequencies --    972.4638               995.8569              1027.9850
 Red. masses --      1.8271                 1.4165                 1.3276
 Frc consts  --      1.0180                 0.8277                 0.8266
 IR Inten    --     10.7828                 5.5464                 2.0695

                     19                     20                     21
                      A                      A                      A
 Frequencies --   1035.7720              1132.0001              1141.6766
 Red. masses --      3.9521                 2.1226                 1.3724
 Frc consts  --      2.4981                 1.6026                 1.0539
 IR Inten    --     10.8751                17.1006                 1.0367

                     22                     23                     24
                      A                      A                      A
 Frequencies --   1146.1238              1186.3672              1263.0603
 Red. masses --      1.5821                 2.0855                 1.5932
 Frc consts  --      1.2245                 1.7294                 1.4975
 IR Inten    --      1.7153                39.5930                18.0999

                     25                     26                     27
                      A                      A                      A
 Frequencies --   1293.0971              1358.2114              1378.3425
 Red. masses --      2.4007                 1.2714                 1.2844
 Frc consts  --      2.3651                 1.3818                 1.4377
 IR Inten    --    197.7619                51.5614                25.1437

                     28                     29                     30
                      A                      A                      A
 Frequencies --   1407.7534              1420.3027              1450.3111
 Red. masses --      1.2553                 1.3172                 1.1992
 Frc consts  --      1.4657                 1.5656                 1.4862
 IR Inten    --     30.1770                16.4573                30.1355

                     31                     32                     33
                      A                      A                      A
 Frequencies --   1466.6991              1479.0556              1491.0288
 Red. masses --      1.4572                 1.0439                 1.1258
 Frc consts  --      1.8469                 1.3455                 1.4746
 IR Inten    --     37.0586                 1.5868                14.7220

                     34                     35                     36
                      A                      A                      A
 Frequencies --   1501.9276              1510.5128              1646.4458
 Red. masses --      1.0657                 1.1431                 1.1013
 Frc consts  --      1.4164                 1.5367                 1.7590
 IR Inten    --      3.6054                 7.2331                30.2970

                     37                     38                     39
                      A                      A                      A
 Frequencies --   1759.5445              2949.5055              2951.5508
 Red. masses --      6.3245                 1.0677                 1.0651
 Frc consts  --     11.5366                 5.4728                 5.4666
 IR Inten    --    398.6377                96.5871                59.5908

                     40                     41                     42
                      A                      A                      A
 Frequencies --   3019.9316              3034.4991              3039.0998
 Red. masses --      1.0805                 1.0386                 1.0822
 Frc consts  --      5.8058                 5.6346                 5.8892
 IR Inten    --     37.8356                33.1924                56.4768

                     43                     44                     45
                      A                      A                      A
 Frequencies --   3055.8194              3107.4275              3112.3278
 Red. masses --      1.1007                 1.1006                 1.1027
 Frc consts  --      6.0559                 6.2617                 6.2931
 IR Inten    --     34.1905                33.8377                26.3108

                     46                     47                     48
                      A                      A                      A
 Frequencies --   3481.0986              3573.4000              3581.3878
 Red. masses --      1.0505                 1.0908                 1.0743
 Frc consts  --      7.5001                 8.2062                 8.1188
 IR Inten    --      0.0182                 0.6543                23.8662

 - Thermochemistry -
 -------------------
 Temperature   298.150 Kelvin.  Pressure   1.00000 Atm.
 Atom     1 has atomic number  6 and mass  12.00000

 Molecular mass:   101.09530 amu.
 Principal axes and moments of inertia in atomic units:
                           1         2         3
     Eigenvalues --   257.296861565.274961759.88596
           X            1.00000   0.00131   0.00233
           Y           -0.00132   1.00000   0.00093
           Z           -0.00233  -0.00093   1.00000
 This molecule is an asymmetric top.
 Rotational symmetry number  1.
 Rotational temperatures (Kelvin)      0.33663     0.05533     0.04922
 Rotational constants (GHZ):           7.01424     1.15299     1.02549
 Zero-point vibrational energy     418914.7 (Joules/Mol)
                                  100.12301 (Kcal/Mol)
 Warning -- explicit consideration of  12 degrees of freedom as
           vibrations may cause significant error
 Vibrational temperatures:     75.33   153.36   211.34   286.70   355.26
          (Kelvin)            378.57   448.38   497.57   529.47   662.75
                              755.83   858.23  1012.53  1218.85  1284.15
                             1399.16  1432.82  1479.04  1490.24  1628.70
                             1642.62  1649.02  1706.92  1817.26  1860.48
                             1954.16  1983.13  2025.44  2043.50  2086.67
                             2110.25  2128.03  2145.26  2160.94  2173.29
                             2368.87  2531.59  4243.68  4246.62  4345.01
                             4365.97  4372.59  4396.64  4470.90  4477.95
                             5008.52  5141.33  5152.82

 Zero-point correction=                           0.159556 (Hartree/Particle)
 Thermal correction to Energy=                    0.168396
 Thermal correction to Enthalpy=                  0.169340
 Thermal correction to Gibbs Free Energy=         0.126125
 Sum of electronic and zero-point Energies=           -323.152267
 Sum of electronic and thermal Energies=              -323.143427
 Sum of electronic and thermal Enthalpies=            -323.142482
 Sum of electronic and thermal Free Energies=         -323.185698

                     E (Thermal)             CV                S
                      KCal/Mol        Cal/Mol-Kelvin    Cal/Mol-Kelvin
 Total                  105.670             31.133             90.954
 Electronic               0.000              0.000              0.000
 Translational            0.889              2.981             39.750
 Rotational               0.889              2.981             28.052
 Vibrational            103.893             25.172             23.152
 Vibration     1          0.596              1.977              4.726
 Vibration     2          0.605              1.944              3.330
 Vibration     3          0.617              1.906              2.712
 Vibration     4          0.637              1.841              2.140
 Vibration     5          0.661              1.768              1.752
 Vibration     6          0.670              1.740              1.641
 Vibration     7          0.700              1.652              1.354
 Vibration     8          0.724              1.584              1.185
 Vibration     9          0.741              1.538              1.088
 Vibration    10          0.818              1.337              0.764
 Vibration    11          0.880              1.194              0.598
 Vibration    12          0.954              1.039              0.456

                           ! Non-Optimized Parameters !
 Normal termination of Gaussian 16 at Tue Jun  1 11:52:09 2021.
