 Gaussian 16, Revision A.03,
 Gaussian 16:  ES64L-G16RevA.03 25-Dec-2016

 -----------------------------
 # opt freq b3lyp/6-31g(2df,p)
 -----------------------------

 -------------------
 Title Card Required
 -------------------
 Symbolic Z-matrix:
 Charge =  0 Multiplicity = 1

 SCF Done:  E(RB3LYP) =  -307.252749531     A.U. after   13 cycles
 SCF Done:  E(RB3LYP) =  -307.256202389     A.U. after   12 cycles
 SCF Done:  E(RB3LYP) =  -307.256778670     A.U. after   12 cycles
 SCF Done:  E(RB3LYP) =  -307.257599108     A.U. after   12 cycles
 SCF Done:  E(RB3LYP) =  -307.259342792     A.U. after   14 cycles
 SCF Done:  E(RB3LYP) =  -307.260831779     A.U. after   12 cycles
 SCF Done:  E(RB3LYP) =  -307.262713120     A.U. after   12 cycles
 SCF Done:  E(RB3LYP) =  -307.263279317     A.U. after   12 cycles
 SCF Done:  E(RB3LYP) =  -307.263335799     A.U. after   11 cycles
 SCF Done:  E(RB3LYP) =  -307.263348879     A.U. after   10 cycles
 SCF Done:  E(RB3LYP) =  -307.263350819     A.U. after    8 cycles
 SCF Done:  E(RB3LYP) =  -307.263351482     A.U. after    8 cycles
 SCF Done:  E(RB3LYP) =  -307.263351612     A.U. after    7 cycles
 SCF Done:  E(RB3LYP) =  -307.263351649     A.U. after    7 cycles
 Optimization completed.
    -- Stationary point found.
 Normal termination of Gaussian 16 at Tue Jun  1 05:23:44 2021.

 ----------------------------------------------------------------------
 #N Geom=AllCheck Guess=TCheck SCRF=Check GenChk RB3LYP/6-31G(2df,p) Fr
 eq
 ----------------------------------------------------------------------

 Structure from the checkpoint file:  "CNdCCCpCpN.chk"
 -------------------
 Title Card Required
 -------------------
 Charge =  0 Multiplicity = 1

                         Standard orientation:
 ---------------------------------------------------------------------
 Center     Atomic      Atomic             Coordinates (Angstroms)
 Number     Number       Type             X           Y           Z
 ---------------------------------------------------------------------
      1          6           0        3.231985    0.230627    0.119791
      2          7           0        1.956648   -0.095116   -0.486820
      3          6           0        1.017636   -0.477940    0.270593
      4          6           0       -0.342399   -0.850805   -0.241758
      5          6           0       -1.474428    0.016760    0.343904
      6          6           0       -1.364783    1.480154   -0.109039
      7          7           0       -2.758333   -0.620759    0.016885
      8          1           0        4.011387   -0.408393   -0.311064
      9          1           0        3.248130    0.116728    1.216013
     10          1           0        3.498887    1.263766   -0.130833
     11          1           0        1.153323   -0.557839    1.364959
     12          1           0       -0.556606   -1.892067    0.030346
     13          1           0       -0.335968   -0.781845   -1.335213
     14          1           0       -1.386690   -0.013848    1.439341
     15          1           0       -1.458210    1.552575   -1.199257
     16          1           0       -0.402694    1.922358    0.170048
     17          1           0       -2.159628    2.085580    0.339820
     18          1           0       -2.889443   -0.605899   -0.992847
     19          1           0       -3.518763   -0.062776    0.397287
 ---------------------------------------------------------------------

 SCF Done:  E(RB3LYP) =  -307.263351649     A.U. after    1 cycles

 The electronic state is 1-A.
 Alpha  occ. eigenvalues --  -14.31673 -14.30684 -10.21801 -10.21422 -10.19938
 Alpha  occ. eigenvalues --  -10.17932 -10.17200  -0.91290  -0.88336  -0.76350
 Alpha  occ. eigenvalues --   -0.71163  -0.67124  -0.58546  -0.55336  -0.48593
 Alpha  occ. eigenvalues --   -0.47125  -0.45392  -0.42640  -0.42291  -0.41999
 Alpha  occ. eigenvalues --   -0.40158  -0.37287  -0.35673  -0.34788  -0.33404
 Alpha  occ. eigenvalues --   -0.28173  -0.24455  -0.23732
 Alpha virt. eigenvalues --    0.00757   0.08095   0.10640   0.12242   0.13258
 Alpha virt. eigenvalues --    0.14360   0.15651   0.15882   0.16906   0.17267
 Alpha virt. eigenvalues --    0.18033   0.18964   0.19727   0.21581   0.22761

 Mulliken charges:
               1
     1  C   -0.315169
     2  N   -0.141039
     3  C    0.033996
     4  C   -0.229156
     5  C    0.040483
     6  C   -0.380400
     7  N   -0.512235
     8  H    0.129249
     9  H    0.097102
    10  H    0.127958
    11  H    0.069413
    12  H    0.118003
    13  H    0.104555
    14  H    0.079428
    15  H    0.112291
    16  H    0.119961
    17  H    0.103837
    18  H    0.220106
    19  H    0.221617
 Sum of Mulliken charges =  -0.00000

 Dipole moment (field-independent basis, Debye):
    X=             -0.4411    Y=              0.9142    Z=              0.8034  Tot=              1.2946
 Quadrupole moment (field-independent basis, Debye-Ang):
   XX=            -41.1207   YY=            -46.5256   ZZ=            -44.6245
   XY=             -3.0517   XZ=              3.5912   YZ=              0.7373

  Exact polarizability:  93.536   4.845  59.991  -1.579  -0.425  61.583
 Approx polarizability: 114.497   9.018  84.996  -7.748  -2.510  98.146

                      1                      2                      3
                      A                      A                      A
 Frequencies --     63.9721                70.8748               146.0864
 Red. masses --      2.2273                 2.9864                 1.9216
 Frc consts  --      0.0054                 0.0088                 0.0242
 IR Inten    --      2.3679                 1.1872                 4.3881

                      4                      5                      6
                      A                      A                      A
 Frequencies --    218.6148               244.2816               251.9897
 Red. masses --      1.4893                 1.0850                 1.1642
 Frc consts  --      0.0419                 0.0381                 0.0436
 IR Inten    --      9.1638                 2.6156                27.6866

                      7                      8                      9
                      A                      A                      A
 Frequencies --    291.2349               336.9007               361.8507
 Red. masses --      2.3824                 2.2753                 3.2610
 Frc consts  --      0.1191                 0.1522                 0.2516
 IR Inten    --      1.1580                11.9308                10.6794

                     10                     11                     12
                      A                      A                      A
 Frequencies --    431.1375               450.9735               581.2261
 Red. masses --      2.2306                 2.2196                 2.5782
 Frc consts  --      0.2443                 0.2660                 0.5132
 IR Inten    --      2.1564                 3.4831                 2.8108

                     13                     14                     15
                      A                      A                      A
 Frequencies --    811.3931               872.8294               904.6737
 Red. masses --      2.2508                 1.7175                 1.4086
 Frc consts  --      0.8731                 0.7709                 0.6793
 IR Inten    --      1.3505                27.9743               111.9137

                     16                     17                     18
                      A                      A                      A
 Frequencies --    938.0457               972.2568               996.1869
 Red. masses --      1.4168                 1.6442                 2.0802
 Frc consts  --      0.7345                 0.9157                 1.2163
 IR Inten    --     14.5874                 6.0518                10.3781

                     19                     20                     21
                      A                      A                      A
 Frequencies --   1044.7155              1072.3914              1116.1218
 Red. masses --      1.6608                 2.9258                 2.0044
 Frc consts  --      1.0680                 1.9824                 1.4712
 IR Inten    --      5.6153                 7.0356                 8.9894

                     22                     23                     24
                      A                      A                      A
 Frequencies --   1143.0302              1152.4192              1179.7297
 Red. masses --      1.4227                 1.3969                 1.9996
 Frc consts  --      1.0952                 1.0930                 1.6396
 IR Inten    --      0.1734                 6.2044                13.4853

                     25                     26                     27
                      A                      A                      A
 Frequencies --   1213.6148              1256.3343              1323.6921
 Red. masses --      1.6411                 1.3210                 1.4739
 Frc consts  --      1.4241                 1.2285                 1.5216
 IR Inten    --      9.9210                 4.9351                 1.4643

                     28                     29                     30
                      A                      A                      A
 Frequencies --   1366.6978              1397.6111              1407.1005
 Red. masses --      1.3079                 1.3517                 1.2734
 Frc consts  --      1.4394                 1.5556                 1.4854
 IR Inten    --     10.5930                13.7110                 5.1213

                     31                     32                     33
                      A                      A                      A
 Frequencies --   1410.0430              1439.1020              1472.1770
 Red. masses --      1.2923                 1.1851                 1.0964
 Frc consts  --      1.5139                 1.4460                 1.4000
 IR Inten    --     10.3754                10.2191                 2.1973

                     34                     35                     36
                      A                      A                      A
 Frequencies --   1478.6588              1493.3485              1494.5925
 Red. masses --      1.0438                 1.0517                 1.0659
 Frc consts  --      1.3446                 1.3819                 1.4029
 IR Inten    --      2.7041                 7.4391                 3.4794

                     37                     38                     39
                      A                      A                      A
 Frequencies --   1496.8964              1659.0235              1763.2172
 Red. masses --      1.0585                 1.0904                 8.2558
 Frc consts  --      1.3974                 1.7682                15.1224
 IR Inten    --     10.7079                21.0197                62.7348

                     40                     41                     42
                      A                      A                      A
 Frequencies --   2943.5747              2968.9166              3003.8667
 Red. masses --      1.0827                 1.0477                 1.0830
 Frc consts  --      5.5272                 5.4413                 5.7576
 IR Inten    --     42.2919                77.4414                27.3290

                     43                     44                     45
                      A                      A                      A
 Frequencies --   3022.4143              3028.4466              3061.8132
 Red. masses --      1.0366                 1.0578                 1.0857
 Frc consts  --      5.5794                 5.7162                 5.9965
 IR Inten    --     23.8565                 9.2951                33.9341

                     46                     47                     48
                      A                      A                      A
 Frequencies --   3080.0484              3082.3378              3092.7390
 Red. masses --      1.1007                 1.1024                 1.1012
 Frc consts  --      6.1521                 6.1708                 6.2056
 IR Inten    --     20.2022                13.0170                42.0532

                     49                     50                     51
                      A                      A                      A
 Frequencies --   3100.0154              3466.1765              3543.6439
 Red. masses --      1.1010                 1.0495                 1.0910
 Frc consts  --      6.2339                 7.4287                 8.0722
 IR Inten    --     33.9899                 1.0877                 0.2696

 - Thermochemistry -
 -------------------
 Temperature   298.150 Kelvin.  Pressure   1.00000 Atm.
 Atom     1 has atomic number  6 and mass  12.00000

 Molecular mass:   100.10005 amu.
 Principal axes and moments of inertia in atomic units:
                           1         2         3
     Eigenvalues --   277.601721554.520671712.92382
           X            0.99992  -0.00485   0.01151
           Y            0.00483   0.99999   0.00145
           Z           -0.01152  -0.00139   0.99993
 This molecule is an asymmetric top.
 Rotational symmetry number  1.
 Rotational temperatures (Kelvin)      0.31201     0.05572     0.05056
 Rotational constants (GHZ):           6.50119     1.16096     1.05360
 Zero-point vibrational energy     446919.1 (Joules/Mol)
                                  106.81623 (Kcal/Mol)
 Warning -- explicit consideration of  12 degrees of freedom as
           vibrations may cause significant error
 Vibrational temperatures:     92.04   101.97   210.19   314.54   351.47
          (Kelvin)            362.56   419.02   484.73   520.62   620.31
                              648.85   836.25  1167.41  1255.81  1301.62
                             1349.64  1398.86  1433.29  1503.11  1542.93
                             1605.85  1644.57  1658.07  1697.37  1746.12
                             1807.58  1904.50  1966.37  2010.85  2024.50
                             2028.74  2070.55  2118.13  2127.46  2148.60
                             2150.39  2153.70  2386.96  2536.88  4235.15
                             4271.61  4321.89  4348.58  4357.26  4405.27
                             4431.50  4434.80  4449.76  4460.23  4987.05
                             5098.51

 Zero-point correction=                           0.170222 (Hartree/Particle)
 Thermal correction to Energy=                    0.179244
 Thermal correction to Enthalpy=                  0.180188
 Thermal correction to Gibbs Free Energy=         0.136564
 Sum of electronic and zero-point Energies=           -307.093129
 Sum of electronic and thermal Energies=              -307.084108
 Sum of electronic and thermal Enthalpies=            -307.083164
 Sum of electronic and thermal Free Energies=         -307.126788

                     E (Thermal)             CV                S
                      KCal/Mol        Cal/Mol-Kelvin    Cal/Mol-Kelvin
 Total                  112.477             31.828             91.815
 Electronic               0.000              0.000              0.000
 Translational            0.889              2.981             39.721
 Rotational               0.889              2.981             28.093
 Vibrational            110.700             25.867             24.001
 Vibration     1          0.597              1.971              4.331
 Vibration     2          0.598              1.968              4.129
 Vibration     3          0.617              1.907              2.723
 Vibration     4          0.646              1.813              1.971
 Vibration     5          0.660              1.772              1.771
 Vibration     6          0.664              1.759              1.717
 Vibration     7          0.687              1.690              1.467
 Vibration     8          0.718              1.602              1.227
 Vibration     9          0.736              1.551              1.114
 Vibration    10          0.792              1.402              0.855
 Vibration    11          0.810              1.359              0.793
 Vibration    12          0.938              1.072              0.483

 Optimization completed.
    -- Stationary point found.
 Normal termination of Gaussian 16 at Tue Jun  1 05:45:29 2021.
