 Gaussian 16, Revision A.03,
 Gaussian 16:  ES64L-G16RevA.03 25-Dec-2016

 -----------------------------
 # opt freq b3lyp/6-31g(2df,p)
 -----------------------------

 -------------------
 Title Card Required
 -------------------
 Symbolic Z-matrix:
 Charge =  0 Multiplicity = 1

 SCF Done:  E(RB3LYP) =  -401.901055865     A.U. after   13 cycles
 SCF Done:  E(RB3LYP) =  -401.905636290     A.U. after   11 cycles
 SCF Done:  E(RB3LYP) =  -401.906165395     A.U. after   12 cycles
 SCF Done:  E(RB3LYP) =  -401.906550195     A.U. after   12 cycles
 SCF Done:  E(RB3LYP) =  -401.907211015     A.U. after   13 cycles
 SCF Done:  E(RB3LYP) =  -401.907884220     A.U. after   12 cycles
 SCF Done:  E(RB3LYP) =  -401.910180538     A.U. after   13 cycles
 SCF Done:  E(RB3LYP) =  -401.911138419     A.U. after   12 cycles
 SCF Done:  E(RB3LYP) =  -401.911593518     A.U. after   11 cycles
 SCF Done:  E(RB3LYP) =  -401.912007261     A.U. after   11 cycles
 SCF Done:  E(RB3LYP) =  -401.912145884     A.U. after   11 cycles
 SCF Done:  E(RB3LYP) =  -401.912194941     A.U. after   11 cycles
 SCF Done:  E(RB3LYP) =  -401.912204212     A.U. after    9 cycles
 SCF Done:  E(RB3LYP) =  -401.912206154     A.U. after    8 cycles
 SCF Done:  E(RB3LYP) =  -401.912206493     A.U. after    7 cycles
 SCF Done:  E(RB3LYP) =  -401.912206535     A.U. after    6 cycles
 Optimization completed.
    -- Stationary point found.
 Normal termination of Gaussian 16 at Tue Jun  1 04:27:24 2021.

 ----------------------------------------------------------------------
 #N Geom=AllCheck Guess=TCheck SCRF=Check GenChk RB3LYP/6-31G(2df,p) Fr
 eq
 ----------------------------------------------------------------------

 Structure from the checkpoint file:  "CNdCCNCCNC.chk"
 -------------------
 Title Card Required
 -------------------
 Charge =  0 Multiplicity = 1

                         Standard orientation:
 ---------------------------------------------------------------------
 Center     Atomic      Atomic             Coordinates (Angstroms)
 Number     Number       Type             X           Y           Z
 ---------------------------------------------------------------------
      1          6           0       -4.757521   -0.662132   -0.025800
      2          7           0       -3.585517    0.095113   -0.419120
      3          6           0       -2.578862    0.071388    0.346405
      4          6           0       -1.317793    0.830286    0.035582
      5          7           0       -0.163102   -0.060933    0.112394
      6          6           0        1.115522    0.620757   -0.059231
      7          6           0        2.275656   -0.366624    0.051303
      8          7           0        3.553273    0.312692   -0.115939
      9          6           0        4.696130   -0.587291   -0.047472
     10          1           0       -5.611923    0.018136    0.067048
     11          1           0       -4.637904   -1.211306    0.921798
     12          1           0       -5.008945   -1.375487   -0.818943
     13          1           0       -2.552637   -0.515046    1.280003
     14          1           0       -1.182500    1.608990    0.801097
     15          1           0       -1.438922    1.342948   -0.932281
     16          1           0       -0.256656   -0.776594   -0.603127
     17          1           0        1.201506    1.372391    0.738647
     18          1           0        1.200753    1.167916   -1.014453
     19          1           0        2.190096   -1.116651   -0.748409
     20          1           0        2.187779   -0.918812    1.005044
     21          1           0        3.646476    1.024676    0.602037
     22          1           0        4.668879   -1.276904   -0.899127
     23          1           0        4.739121   -1.199663    0.871757
     24          1           0        5.623502   -0.011014   -0.117164
 ---------------------------------------------------------------------

 SCF Done:  E(RB3LYP) =  -401.912206535     A.U. after    1 cycles

 The electronic state is 1-A.
 Alpha  occ. eigenvalues --  -14.31929 -14.31551 -14.31109 -10.21682 -10.20617
 Alpha  occ. eigenvalues --  -10.20277 -10.20100 -10.20031 -10.19781  -0.92059
 Alpha  occ. eigenvalues --   -0.90470  -0.88891  -0.75004  -0.70898  -0.66176
 Alpha  occ. eigenvalues --   -0.63116  -0.60282  -0.55123  -0.49747  -0.48598
 Alpha  occ. eigenvalues --   -0.46710  -0.45338  -0.43939  -0.42825  -0.41963
 Alpha  occ. eigenvalues --   -0.41141  -0.40538  -0.38325  -0.36334  -0.36301
 Alpha  occ. eigenvalues --   -0.34383  -0.33774  -0.28785  -0.24640  -0.22808
 Alpha  occ. eigenvalues --   -0.21787
 Alpha virt. eigenvalues --    0.00374   0.08591   0.09434   0.10997   0.11505
 Alpha virt. eigenvalues --    0.13550   0.14113   0.15173   0.15426   0.16133
 Alpha virt. eigenvalues --    0.17276   0.17618   0.18335   0.18689   0.19064

 Mulliken charges:
               1
     1  C   -0.313114
     2  N   -0.139043
     3  C    0.023401
     4  C   -0.187954
     5  N   -0.308470
     6  C   -0.131076
     7  C   -0.136451
     8  N   -0.279369
     9  C   -0.307863
    10  H    0.130072
    11  H    0.099795
    12  H    0.128867
    13  H    0.080713
    14  H    0.110563
    15  H    0.099863
    16  H    0.217314
    17  H    0.094532
    18  H    0.092849
    19  H    0.095615
    20  H    0.086011
    21  H    0.214283
    22  H    0.120914
    23  H    0.092243
    24  H    0.116305
 Sum of Mulliken charges =  -0.00000

 Dipole moment (field-independent basis, Debye):
    X=              0.5351    Y=             -0.5278    Z=              1.1433  Tot=              1.3682
 Quadrupole moment (field-independent basis, Debye-Ang):
   XX=            -54.4501   YY=            -56.2005   ZZ=            -58.2882
   XY=              2.3467   XZ=             -0.2392   YZ=              3.4634

  Exact polarizability: 128.670   4.525  76.512   4.387  -0.579  73.628
 Approx polarizability: 141.411   5.367 112.969  11.052  -0.549 115.910

                      1                      2                      3
                      A                      A                      A
 Frequencies --     40.2358                53.4151                71.2654
 Red. masses --      3.2261                 2.6525                 2.0971
 Frc consts  --      0.0031                 0.0045                 0.0063
 IR Inten    --      0.4539                 0.0939                 0.6065

                      4                      5                      6
                      A                      A                      A
 Frequencies --     96.4420               139.3212               144.8975
 Red. masses --      2.4103                 2.2834                 2.0645
 Frc consts  --      0.0132                 0.0261                 0.0255
 IR Inten    --      3.4684                 0.7933                 4.5924

                      7                      8                      9
                      A                      A                      A
 Frequencies --    176.4174               221.3173               251.3885
 Red. masses --      2.4097                 1.5448                 1.1929
 Frc consts  --      0.0442                 0.0446                 0.0444
 IR Inten    --      3.4674                 9.5349                 2.1105

                     10                     11                     12
                      A                      A                      A
 Frequencies --    273.9674               302.2920               324.1502
 Red. masses --      3.7679                 2.4371                 3.2338
 Frc consts  --      0.1666                 0.1312                 0.2002
 IR Inten    --      0.9543                 1.5475                 1.4317

                     13                     14                     15
                      A                      A                      A
 Frequencies --    452.8068               500.7174               572.0328
 Red. masses --      2.9257                 3.7621                 2.6559
 Frc consts  --      0.3534                 0.5557                 0.5120
 IR Inten    --      2.8989                 0.4478                10.4879

                     16                     17                     18
                      A                      A                      A
 Frequencies --    782.2246               789.7808               821.4919
 Red. masses --      1.2326                 1.1967                 1.1692
 Frc consts  --      0.4444                 0.4398                 0.4649
 IR Inten    --     81.3539                55.2890                 7.8172

                     19                     20                     21
                      A                      A                      A
 Frequencies --    886.2600               967.6258               991.7057
 Red. masses --      1.4726                 2.1590                 1.8680
 Frc consts  --      0.6815                 1.1910                 1.0824
 IR Inten    --     25.4745                13.1925                 2.1353

                     22                     23                     24
                      A                      A                      A
 Frequencies --   1033.0011              1051.5262              1079.8865
 Red. masses --      2.8967                 3.1662                 1.8890
 Frc consts  --      1.8212                 2.0626                 1.2979
 IR Inten    --      2.7865                 4.2514                 0.7283

                     25                     26                     27
                      A                      A                      A
 Frequencies --   1090.8490              1106.0610              1141.8082
 Red. masses --      1.8714                 1.6168                 1.5385
 Frc consts  --      1.3120                 1.1654                 1.1818
 IR Inten    --     15.8598                 2.2837                 2.9102

                     28                     29                     30
                      A                      A                      A
 Frequencies --   1145.2288              1151.3697              1162.9546
 Red. masses --      2.3814                 1.9202                 1.8893
 Frc consts  --      1.8402                 1.4998                 1.5055
 IR Inten    --      0.7987                26.0630                49.2493

                     31                     32                     33
                      A                      A                      A
 Frequencies --   1184.2751              1197.9081              1258.5996
 Red. masses --      2.0977                 1.6273                 1.5768
 Frc consts  --      1.7334                 1.3759                 1.4717
 IR Inten    --     33.8619                 1.9161                10.7018

                     34                     35                     36
                      A                      A                      A
 Frequencies --   1281.3240              1311.9411              1317.9403
 Red. masses --      1.2827                 1.1364                 1.2593
 Frc consts  --      1.2408                 1.1524                 1.2888
 IR Inten    --     12.1462                 8.3001                27.9794

                     37                     38                     39
                      A                      A                      A
 Frequencies --   1355.2040              1391.5873              1427.2211
 Red. masses --      1.2883                 1.4218                 1.5080
 Frc consts  --      1.3940                 1.6222                 1.8099
 IR Inten    --      6.4544                 2.7275                 2.9674

                     40                     41                     42
                      A                      A                      A
 Frequencies --   1438.7706              1460.3608              1478.8840
 Red. masses --      1.1805                 1.1808                 1.0438
 Frc consts  --      1.4398                 1.4837                 1.3450
 IR Inten    --      9.4537                 3.1542                 3.1658

                     43                     44                     45
                      A                      A                      A
 Frequencies --   1483.8962              1489.9275              1492.1878
 Red. masses --      1.1927                 1.1026                 1.0791
 Frc consts  --      1.5474                 1.4421                 1.4157
 IR Inten    --      3.5183                 9.6546                12.5381

                     46                     47                     48
                      A                      A                      A
 Frequencies --   1495.7484              1500.1082              1512.4584
 Red. masses --      1.0616                 1.1787                 1.0878
 Frc consts  --      1.3994                 1.5628                 1.4661
 IR Inten    --     20.4610                16.9691                 5.3324

                     49                     50                     51
                      A                      A                      A
 Frequencies --   1519.0308              1526.2442              1766.3485
 Red. masses --      1.0664                 1.0860                 8.3658
 Frc consts  --      1.4498                 1.4905                15.3784
 IR Inten    --     17.3882                 0.5668                57.3610

                     52                     53                     54
                      A                      A                      A
 Frequencies --   2932.7159              2939.5795              2953.0819
 Red. masses --      1.0689                 1.0617                 1.0677
 Frc consts  --      5.4168                 5.4053                 5.4857
 IR Inten    --     14.2031                96.1480               101.8669

                     55                     56                     57
                      A                      A                      A
 Frequencies --   2971.8694              2973.7144              2981.1851
 Red. masses --      1.0553                 1.0574                 1.0783
 Frc consts  --      5.4916                 5.5092                 5.6466
 IR Inten    --     44.9983                28.9793                89.5490

                     58                     59                     60
                      A                      A                      A
 Frequencies --   3005.7429              3018.2673              3026.6293
 Red. masses --      1.0849                 1.0990                 1.0942
 Frc consts  --      5.7748                 5.8991                 5.9055
 IR Inten    --      0.2218                32.6191                72.5214

                     61                     62                     63
                      A                      A                      A
 Frequencies --   3052.1767              3064.1709              3081.5104
 Red. masses --      1.0737                 1.0873                 1.1006
 Frc consts  --      5.8934                 6.0146                 6.1575
 IR Inten    --     40.3749                33.0329                19.5575

                     64                     65                     66
                      A                      A                      A
 Frequencies --   3100.7626              3498.0070              3507.5890
 Red. masses --      1.1008                 1.0733                 1.0735
 Frc consts  --      6.2356                 7.7379                 7.7813
 IR Inten    --     32.0788                 0.2406                 0.3591

 - Thermochemistry -
 -------------------
 Temperature   298.150 Kelvin.  Pressure   1.00000 Atm.
 Atom     1 has atomic number  6 and mass  12.00000

 Molecular mass:   129.12660 amu.
 Principal axes and moments of inertia in atomic units:
                           1         2         3
     Eigenvalues --   208.175774559.722334663.76300
           X            1.00000   0.00053  -0.00121
           Y           -0.00052   0.99995   0.01028
           Z            0.00122  -0.01027   0.99995
 This molecule is an asymmetric top.
 Rotational symmetry number  1.
 Rotational temperatures (Kelvin)      0.41606     0.01900     0.01857
 Rotational constants (GHZ):           8.66931     0.39580     0.38697
 Zero-point vibrational energy     567146.0 (Joules/Mol)
                                  135.55115 (Kcal/Mol)
 Warning -- explicit consideration of  15 degrees of freedom as
           vibrations may cause significant error
 Vibrational temperatures:     57.89    76.85   102.53   138.76   200.45
          (Kelvin)            208.48   253.83   318.43   361.69   394.18
                              434.93   466.38   651.49   720.42   823.03
                             1125.45  1136.32  1181.94  1275.13  1392.20
                             1426.84  1486.26  1512.91  1553.72  1569.49
                             1591.38  1642.81  1647.73  1656.56  1673.23
                             1703.91  1723.52  1810.84  1843.54  1887.59
                             1896.22  1949.84  2002.18  2053.45  2070.07
                             2101.13  2127.78  2135.00  2143.67  2146.93
                             2152.05  2158.32  2176.09  2185.55  2195.93
                             2541.38  4219.52  4229.40  4248.83  4275.86
                             4278.51  4289.26  4324.59  4342.61  4354.64
                             4391.40  4408.66  4433.61  4461.31  5032.85
                             5046.64

 Zero-point correction=                           0.216015 (Hartree/Particle)
 Thermal correction to Energy=                    0.227669
 Thermal correction to Enthalpy=                  0.228614
 Thermal correction to Gibbs Free Energy=         0.177465
 Sum of electronic and zero-point Energies=           -401.696192
 Sum of electronic and thermal Energies=              -401.684537
 Sum of electronic and thermal Enthalpies=            -401.683593
 Sum of electronic and thermal Free Energies=         -401.734742

                     E (Thermal)             CV                S
                      KCal/Mol        Cal/Mol-Kelvin    Cal/Mol-Kelvin
 Total                  142.865             39.828            107.652
 Electronic               0.000              0.000              0.000
 Translational            0.889              2.981             40.480
 Rotational               0.889              2.981             29.872
 Vibrational            141.087             33.866             37.300
 Vibration     1          0.594              1.981              5.247
 Vibration     2          0.596              1.976              4.687
 Vibration     3          0.598              1.968              4.118
 Vibration     4          0.603              1.952              3.525
 Vibration     5          0.615              1.914              2.813
 Vibration     6          0.616              1.908              2.738
 Vibration     7          0.628              1.871              2.366
 Vibration     8          0.648              1.809              1.948
 Vibration     9          0.663              1.760              1.721
 Vibration    10          0.676              1.721              1.571
 Vibration    11          0.694              1.669              1.404
 Vibration    12          0.709              1.627              1.289
 Vibration    13          0.811              1.355              0.787
 Vibration    14          0.856              1.248              0.656
 Vibration    15          0.928              1.092              0.500

 Optimization completed.
    -- Stationary point found.
 Normal termination of Gaussian 16 at Tue Jun  1 04:54:26 2021.
