 Gaussian 16, Revision A.03,
 Gaussian 16:  ES64L-G16RevA.03 25-Dec-2016

 -----------------------------
 # opt freq b3lyp/6-31g(2df,p)
 -----------------------------

 -------------------
 Title Card Required
 -------------------
 Symbolic Z-matrix:
 Charge =  0 Multiplicity = 1

 SCF Done:  E(RB3LYP) =  -247.276819047     A.U. after   14 cycles
 SCF Done:  E(RB3LYP) =  -247.278691425     A.U. after   12 cycles
 SCF Done:  E(RB3LYP) =  -247.278833363     A.U. after   11 cycles
 SCF Done:  E(RB3LYP) =  -247.278847885     A.U. after    9 cycles
 SCF Done:  E(RB3LYP) =  -247.278731217     A.U. after   12 cycles
 SCF Done:  E(RB3LYP) =  -247.278850905     A.U. after   12 cycles
 SCF Done:  E(RB3LYP) =  -247.278851588     A.U. after    8 cycles
 Optimization completed.
    -- Stationary point found.
 Normal termination of Gaussian 16 at Tue Jun  1 20:23:55 2021.

 ----------------------------------------------------------------------
 #N Geom=AllCheck Guess=TCheck SCRF=Check GenChk RB3LYP/6-31G(2df,p) Fr
 eq
 ----------------------------------------------------------------------

 Structure from the checkpoint file:  "CNdCCdO.chk"
 -------------------
 Title Card Required
 -------------------
 Charge =  0 Multiplicity = 1

                         Standard orientation:
 ---------------------------------------------------------------------
 Center     Atomic      Atomic             Coordinates (Angstroms)
 Number     Number       Type             X           Y           Z
 ---------------------------------------------------------------------
      1          6           0        2.315857   -0.142208    0.000005
      2          7           0        0.998914    0.482685   -0.000003
      3          6           0       -0.021497   -0.270633   -0.000005
      4          6           0       -1.371838    0.357890   -0.000028
      5          8           0       -2.397260   -0.278298    0.000013
      6          1           0        3.088938    0.628481   -0.000052
      7          1           0        2.453374   -0.773976   -0.886283
      8          1           0        2.453403   -0.773870    0.886363
      9          1           0       -0.001469   -1.370437   -0.000007
     10          1           0       -1.343693    1.467102    0.000059
 ---------------------------------------------------------------------

 SCF Done:  E(RB3LYP) =  -247.278851588     A.U. after    1 cycles

 The electronic state is 1-A.
 Alpha  occ. eigenvalues --  -19.14937 -14.35620 -10.27555 -10.23978 -10.22214
 Alpha  occ. eigenvalues --   -1.05422  -0.94122  -0.74387  -0.64319  -0.57253
 Alpha  occ. eigenvalues --   -0.49084  -0.47593  -0.45435  -0.43760  -0.40852
 Alpha  occ. eigenvalues --   -0.40496  -0.31695  -0.28334  -0.25809
 Alpha virt. eigenvalues --   -0.07937   0.04159   0.09877   0.12562   0.14749
 Alpha virt. eigenvalues --    0.15663   0.17081   0.17763   0.24393   0.28513
 Alpha virt. eigenvalues --    0.36073   0.45263   0.46613   0.47205   0.50089

 Mulliken charges:
               1
     1  C   -0.322296
     2  N   -0.128508
     3  C   -0.050220
     4  C    0.132029
     5  O   -0.241652
     6  H    0.137972
     7  H    0.139699
     8  H    0.139702
     9  H    0.098760
    10  H    0.094514
 Sum of Mulliken charges =   0.00000

 Dipole moment (field-independent basis, Debye):
    X=              2.7515    Y=             -0.5491    Z=             -0.0000  Tot=              2.8057
 Quadrupole moment (field-independent basis, Debye-Ang):
   XX=            -32.9492   YY=            -29.4675   ZZ=            -28.6967
   XY=             -3.3849   XZ=              0.0001   YZ=              0.0000

  Exact polarizability:  66.383   2.544  39.271  -0.000   0.000  26.391
 Approx polarizability:  97.483  15.305  60.567  -0.000   0.000  39.167

 ******    1 imaginary frequencies (negative Signs) ******

                      1                      2                      3
                      A                      A                      A
 Frequencies --   -221.7893               138.2995               211.4188
 Red. masses --      1.1523                 3.8759                 3.8350
 Frc consts  --      0.0334                 0.0437                 0.1010
 IR Inten    --      0.0575                 7.6706                10.2140

                      4                      5                      6
                      A                      A                      A
 Frequencies --    309.4729               472.7560               537.2800
 Red. masses --      2.5769                 3.4855                 5.2701
 Frc consts  --      0.1454                 0.4590                 0.8963
 IR Inten    --     15.2617                11.6746                10.9196

                      7                      8                      9
                      A                      A                      A
 Frequencies --    913.4833              1023.1198              1054.1895
 Red. masses --      1.2265                 6.8262                 1.8193
 Frc consts  --      0.6030                 4.2100                 1.1912
 IR Inten    --      2.1374                 9.0572                 1.2611

                     10                     11                     12
                      A                      A                      A
 Frequencies --   1108.7689              1110.8869              1148.8639
 Red. masses --      1.3950                 2.2479                 1.5947
 Frc consts  --      1.0105                 1.6345                 1.2401
 IR Inten    --      0.2690                11.3205                37.7932

                     13                     14                     15
                      A                      A                      A
 Frequencies --   1327.3455              1391.3721              1420.3593
 Red. masses --      1.3486                 1.2708                 1.1510
 Frc consts  --      1.3999                 1.4494                 1.3681
 IR Inten    --      5.5630                 3.0835                13.8301

                     16                     17                     18
                      A                      A                      A
 Frequencies --   1481.8812              1502.3394              1724.9090
 Red. masses --      1.0717                 1.0439                 8.1328
 Frc consts  --      1.3866                 1.3882                14.2568
 IR Inten    --      2.0059                 6.1179                 4.5354

                     19                     20                     21
                      A                      A                      A
 Frequencies --   1809.0511              2930.1894              3013.7019
 Red. masses --     10.1846                 1.0862                 1.0477
 Frc consts  --     19.6379                 5.4948                 5.6067
 IR Inten    --    165.5922                79.3731                14.5193

                     22                     23                     24
                      A                      A                      A
 Frequencies --   3022.1889              3077.1137              3123.3536
 Red. masses --      1.0767                 1.1015                 1.0995
 Frc consts  --      5.7943                 6.1449                 6.3195
 IR Inten    --     41.0066                16.1682                26.1354

 - Thermochemistry -
 -------------------
 Temperature   298.150 Kelvin.  Pressure   1.00000 Atm.
 Atom     1 has atomic number  6 and mass  12.00000

 Molecular mass:    71.03711 amu.
 Principal axes and moments of inertia in atomic units:
                           1         2         3
     Eigenvalues --    51.16461 776.54836 816.40390
           X            0.99982  -0.01905  -0.00000
           Y            0.01905   0.99982   0.00001
           Z            0.00000  -0.00001   1.00000
 This molecule is an asymmetric top.
 Rotational symmetry number  1.
 Rotational temperatures (Kelvin)      1.69285     0.11154     0.10609
 Rotational constants (GHZ):          35.27323     2.32406     2.21060
    1 imaginary frequencies ignored.
 Zero-point vibrational energy     202482.0 (Joules/Mol)
                                   48.39436 (Kcal/Mol)
 Warning -- explicit consideration of   5 degrees of freedom as
           vibrations may cause significant error
 Vibrational temperatures:    198.98   304.18   445.26   680.19   773.03
          (Kelvin)           1314.30  1472.04  1516.74  1595.27  1598.32
                             1652.96  1909.75  2001.87  2043.58  2132.10
                             2161.53  2481.76  2602.82  4215.89  4336.04
                             4348.26  4427.28  4493.81

 Zero-point correction=                           0.077121 (Hartree/Particle)
 Thermal correction to Energy=                    0.082234
 Thermal correction to Enthalpy=                  0.083178
 Thermal correction to Gibbs Free Energy=         0.049080
 Sum of electronic and zero-point Energies=           -247.201730
 Sum of electronic and thermal Energies=              -247.196618
 Sum of electronic and thermal Enthalpies=            -247.195674
 Sum of electronic and thermal Free Energies=         -247.229772

                     E (Thermal)             CV                S
                      KCal/Mol        Cal/Mol-Kelvin    Cal/Mol-Kelvin
 Total                   51.602             16.330             71.766
 Electronic               0.000              0.000              0.000
 Translational            0.889              2.981             38.699
 Rotational               0.889              2.981             24.987
 Vibrational             49.825             10.368              8.080
 Vibration     1          0.614              1.915              2.827
 Vibration     2          0.643              1.823              2.031
 Vibration     3          0.699              1.656              1.365
 Vibration     4          0.830              1.310              0.730
 Vibration     5          0.892              1.168              0.571

 Optimization completed.
    -- Stationary point found.
 Normal termination of Gaussian 16 at Tue Jun  1 20:29:49 2021.
