 Gaussian 16, Revision A.03,
 Gaussian 16:  ES64L-G16RevA.03 25-Dec-2016

 -----------------------------
 # opt freq b3lyp/6-31g(2df,p)
 -----------------------------

 -------------------
 Title Card Required
 -------------------
 Symbolic Z-matrix:
 Charge =  0 Multiplicity = 1

 SCF Done:  E(RB3LYP) =  -438.781485759     A.U. after   15 cycles
 SCF Done:  E(RB3LYP) =  -438.806387735     A.U. after   12 cycles
 SCF Done:  E(RB3LYP) =  -438.807252866     A.U. after   12 cycles
 SCF Done:  E(RB3LYP) =  -438.807582151     A.U. after   12 cycles
 SCF Done:  E(RB3LYP) =  -438.808219174     A.U. after   13 cycles
 SCF Done:  E(RB3LYP) =  -438.809003465     A.U. after   13 cycles
 SCF Done:  E(RB3LYP) =  -438.810833164     A.U. after   13 cycles
 SCF Done:  E(RB3LYP) =  -438.812374311     A.U. after   13 cycles
 SCF Done:  E(RB3LYP) =  -438.812956846     A.U. after   12 cycles
 SCF Done:  E(RB3LYP) =  -438.813157046     A.U. after   12 cycles
 SCF Done:  E(RB3LYP) =  -438.813317731     A.U. after   12 cycles
 SCF Done:  E(RB3LYP) =  -438.813391916     A.U. after   12 cycles
 SCF Done:  E(RB3LYP) =  -438.813417429     A.U. after   11 cycles
 SCF Done:  E(RB3LYP) =  -438.813424480     A.U. after   10 cycles
 SCF Done:  E(RB3LYP) =  -438.813425004     A.U. after    8 cycles
 SCF Done:  E(RB3LYP) =  -438.813425063     A.U. after    7 cycles
 Optimization completed.
    -- Stationary point found.
 Normal termination of Gaussian 16 at Tue Jun  1 01:01:14 2021.

 ----------------------------------------------------------------------
 #N Geom=AllCheck Guess=TCheck SCRF=Check GenChk RB3LYP/6-31G(2df,p) Fr
 eq
 ----------------------------------------------------------------------

 Structure from the checkpoint file:  "CNdCCNCCCCtN.chk"
 -------------------
 Title Card Required
 -------------------
 Charge =  0 Multiplicity = 1

                         Standard orientation:
 ---------------------------------------------------------------------
 Center     Atomic      Atomic             Coordinates (Angstroms)
 Number     Number       Type             X           Y           Z
 ---------------------------------------------------------------------
      1          6           0        5.056955   -0.809751    0.063774
      2          7           0        3.917053    0.012871    0.418607
      3          6           0        2.919906    0.014558   -0.359126
      4          6           0        1.695018    0.842974   -0.081893
      5          7           0        0.500315    0.001473   -0.122185
      6          6           0       -0.744385    0.742865    0.028107
      7          6           0       -1.945852   -0.199982   -0.040403
      8          6           0       -3.278439    0.563722    0.080784
      9          6           0       -4.439458   -0.322122    0.036636
     10          7           0       -5.347438   -1.035972    0.001561
     11          1           0        5.943132   -0.172685   -0.035790
     12          1           0        4.923679   -1.380159   -0.869047
     13          1           0        5.263645   -1.509851    0.881093
     14          1           0        2.875251   -0.595802   -1.276205
     15          1           0        1.593357    1.595388   -0.877989
     16          1           0        1.839300    1.385903    0.865854
     17          1           0        0.566451   -0.697071    0.612903
     18          1           0       -0.802158    1.470670   -0.792823
     19          1           0       -0.788755    1.331267    0.965425
     20          1           0       -1.885266   -0.940790    0.765743
     21          1           0       -1.918432   -0.755025   -0.982648
     22          1           0       -3.371520    1.296760   -0.729311
     23          1           0       -3.310659    1.129210    1.019645
 ---------------------------------------------------------------------

 SCF Done:  E(RB3LYP) =  -438.813425063     A.U. after    1 cycles

 The electronic state is 1-A.
 Alpha  occ. eigenvalues --  -14.32900 -14.32700 -14.32572 -10.23923 -10.22475
 Alpha  occ. eigenvalues --  -10.22434 -10.21947 -10.21665 -10.20951 -10.20613
 Alpha  occ. eigenvalues --   -0.93006  -0.91011  -0.90006  -0.81736  -0.74916
 Alpha  occ. eigenvalues --   -0.70522  -0.65674  -0.62007  -0.55965  -0.52386
 Alpha  occ. eigenvalues --   -0.50950  -0.49216  -0.46836  -0.46060  -0.44834
 Alpha  occ. eigenvalues --   -0.43221  -0.41709  -0.40712  -0.39939  -0.37547
 Alpha  occ. eigenvalues --   -0.36435  -0.35964  -0.35137  -0.32232  -0.32181
 Alpha  occ. eigenvalues --   -0.29563  -0.25381  -0.23943
 Alpha virt. eigenvalues --   -0.00440   0.03525   0.04065   0.07536   0.08824
 Alpha virt. eigenvalues --    0.10042   0.10890   0.12203   0.13515   0.14424
 Alpha virt. eigenvalues --    0.14761   0.16764   0.16976   0.17311   0.17958

 Mulliken charges:
               1
     1  C   -0.314474
     2  N   -0.137428
     3  C    0.021148
     4  C   -0.191237
     5  N   -0.310454
     6  C   -0.120516
     7  C   -0.196257
     8  C   -0.339396
     9  C    0.257799
    10  N   -0.302891
    11  H    0.132471
    12  H    0.101953
    13  H    0.131227
    14  H    0.083804
    15  H    0.113101
    16  H    0.101660
    17  H    0.219854
    18  H    0.106931
    19  H    0.082935
    20  H    0.118514
    21  H    0.134013
    22  H    0.153821
    23  H    0.153421
 Sum of Mulliken charges =  -0.00000

 Dipole moment (field-independent basis, Debye):
    X=              3.1292    Y=              1.8164    Z=             -0.2379  Tot=              3.6260
 Quadrupole moment (field-independent basis, Debye-Ang):
   XX=            -87.2602   YY=            -61.2918   ZZ=            -60.6176
   XY=            -14.6972   XZ=             -3.8187   YZ=             -1.8109

  Exact polarizability: 137.799  -0.122  81.062   4.594   1.115  73.802
 Approx polarizability: 160.463   8.849 124.539  11.841   1.661 117.828

                      1                      2                      3
                      A                      A                      A
 Frequencies --     37.1399                49.1024                59.4622
 Red. masses --      3.5975                 3.2685                 2.9609
 Frc consts  --      0.0029                 0.0046                 0.0062
 IR Inten    --      1.4949                 2.8717                 6.0743

                      4                      5                      6
                      A                      A                      A
 Frequencies --     88.1992               127.5401               136.9468
 Red. masses --      2.4615                 2.7646                 2.5608
 Frc consts  --      0.0113                 0.0265                 0.0283
 IR Inten    --      2.8009                 3.1720                 0.6381

                      7                      8                      9
                      A                      A                      A
 Frequencies --    161.1916               208.6636               222.5311
 Red. masses --      2.1791                 3.3938                 1.7256
 Frc consts  --      0.0334                 0.0871                 0.0503
 IR Inten    --      5.0188                 2.4530                11.6193

                     10                     11                     12
                      A                      A                      A
 Frequencies --    292.6404               311.7548               369.4314
 Red. masses --      3.3725                 2.6731                 3.9649
 Frc consts  --      0.1702                 0.1531                 0.3188
 IR Inten    --      2.0947                 4.8577                 0.1568

                     13                     14                     15
                      A                      A                      A
 Frequencies --    398.1151               486.2837               546.0762
 Red. masses --      3.4768                 4.0500                 3.6958
 Frc consts  --      0.3247                 0.5643                 0.6493
 IR Inten    --      0.6720                 0.5163                 2.8202

                     16                     17                     18
                      A                      A                      A
 Frequencies --    584.6896               752.4920               785.7849
 Red. masses --      3.2905                 1.1182                 1.2170
 Frc consts  --      0.6628                 0.3731                 0.4427
 IR Inten    --      5.4876                 1.8057                62.0866

                     19                     20                     21
                      A                      A                      A
 Frequencies --    859.2979               890.5873               936.8834
 Red. masses --      1.2943                 1.5117                 3.7622
 Frc consts  --      0.5631                 0.7064                 1.9457
 IR Inten    --      2.4501                17.8502                 4.0762

                     22                     23                     24
                      A                      A                      A
 Frequencies --    976.6438              1022.7514              1041.9307
 Red. masses --      2.2655                 3.4080                 2.9537
 Frc consts  --      1.2732                 2.1004                 1.8893
 IR Inten    --     10.1755                 2.1183                10.9962

                     25                     26                     27
                      A                      A                      A
 Frequencies --   1054.8191              1086.2009              1103.9177
 Red. masses --      2.7405                 2.0775                 2.5601
 Frc consts  --      1.7966                 1.4441                 1.8382
 IR Inten    --      1.6412                 4.5343                 5.4604

                     28                     29                     30
                      A                      A                      A
 Frequencies --   1133.3436              1142.2698              1152.9532
 Red. masses --      1.6595                 1.4381                 3.5542
 Frc consts  --      1.2559                 1.1055                 2.7837
 IR Inten    --      2.5199                 1.9832                49.5114

                     31                     32                     33
                      A                      A                      A
 Frequencies --   1165.1007              1201.2819              1257.4559
 Red. masses --      1.3597                 1.4418                 1.2799
 Frc consts  --      1.0875                 1.2259                 1.1923
 IR Inten    --      4.4697                 6.7748                 4.4057

                     34                     35                     36
                      A                      A                      A
 Frequencies --   1281.2699              1307.9782              1321.3444
 Red. masses --      1.3059                 1.1967                 1.0777
 Frc consts  --      1.2631                 1.2063                 1.1087
 IR Inten    --     12.9840                 2.6030                 1.3037

                     37                     38                     39
                      A                      A                      A
 Frequencies --   1334.7533              1366.5447              1389.7458
 Red. masses --      1.2838                 1.3657                 1.4463
 Frc consts  --      1.3475                 1.5027                 1.6458
 IR Inten    --     28.9753                 1.2788                 8.8130

                     40                     41                     42
                      A                      A                      A
 Frequencies --   1426.1199              1438.8486              1469.6051
 Red. masses --      1.5300                 1.1782                 1.0823
 Frc consts  --      1.8334                 1.4372                 1.3772
 IR Inten    --      2.3341                 9.8165                 2.4936

                     43                     44                     45
                      A                      A                      A
 Frequencies --   1478.5947              1491.2272              1495.6069
 Red. masses --      1.0434                 1.0973                 1.0694
 Frc consts  --      1.3441                 1.4377                 1.4094
 IR Inten    --      3.4930                 3.5352                27.2107

                     46                     47                     48
                      A                      A                      A
 Frequencies --   1497.3157              1498.5877              1520.8840
 Red. masses --      1.1283                 1.1407                 1.0896
 Frc consts  --      1.4904                 1.5093                 1.4849
 IR Inten    --     18.1547                 9.0788                 2.6621

                     49                     50                     51
                      A                      A                      A
 Frequencies --   1766.6556              2363.8634              2910.8984
 Red. masses --      8.3488                12.6098                 1.0726
 Frc consts  --     15.3525                41.5148                 5.3547
 IR Inten    --     55.4601                12.5381                74.2145

                     52                     53                     54
                      A                      A                      A
 Frequencies --   2974.5919              2976.0356              2984.4178
 Red. masses --      1.0562                 1.0546                 1.0795
 Frc consts  --      5.5064                 5.5034                 5.6648
 IR Inten    --     43.5750                26.0634                76.4468

                     55                     56                     57
                      A                      A                      A
 Frequencies --   3021.3465              3023.7713              3035.5031
 Red. masses --      1.0996                 1.0839                 1.0595
 Frc consts  --      5.9140                 5.8392                 5.7517
 IR Inten    --     26.1725                22.7930                 1.6616

                     58                     59                     60
                      A                      A                      A
 Frequencies --   3046.5701              3066.6606              3071.3190
 Red. masses --      1.0642                 1.0879                 1.0991
 Frc consts  --      5.8194                 6.0279                 6.1088
 IR Inten    --     31.4285                30.6847                 1.2210

                     61                     62                     63
                      A                      A                      A
 Frequencies --   3083.8280              3101.5300              3501.0980
 Red. masses --      1.1006                 1.1020                 1.0735
 Frc consts  --      6.1669                 6.2460                 7.7528
 IR Inten    --     18.0596                22.5520                 0.4390

 - Thermochemistry -
 -------------------
 Temperature   298.150 Kelvin.  Pressure   1.00000 Atm.
 Atom     1 has atomic number  6 and mass  12.00000

 Molecular mass:   139.11095 amu.
 Principal axes and moments of inertia in atomic units:
                           1         2         3
     Eigenvalues --   269.933595811.303895979.32866
           X            0.99992  -0.01261  -0.00235
           Y            0.01263   0.99989   0.00825
           Z            0.00225  -0.00828   0.99996
 This molecule is an asymmetric top.
 Rotational symmetry number  1.
 Rotational temperatures (Kelvin)      0.32087     0.01490     0.01449
 Rotational constants (GHZ):           6.68587     0.31056     0.30183
 Zero-point vibrational energy     519717.6 (Joules/Mol)
                                  124.21549 (Kcal/Mol)
 Warning -- explicit consideration of  16 degrees of freedom as
           vibrations may cause significant error
 Vibrational temperatures:     53.44    70.65    85.55   126.90   183.50
          (Kelvin)            197.04   231.92   300.22   320.17   421.04
                              448.55   531.53   572.80   699.65   785.68
                              841.24  1082.67  1130.57  1236.34  1281.36
                             1347.97  1405.17  1471.51  1499.11  1517.65
                             1562.80  1588.29  1630.63  1643.47  1658.84
                             1676.32  1728.38  1809.20  1843.46  1881.89
                             1901.12  1920.41  1966.15  1999.53  2051.87
                             2070.18  2114.43  2127.37  2145.54  2151.84
                             2154.30  2156.13  2188.21  2541.82  3401.07
                             4188.13  4279.77  4281.85  4293.91  4347.04
                             4350.53  4367.41  4383.33  4412.24  4418.94
                             4436.94  4462.41  5037.30

 Zero-point correction=                           0.197950 (Hartree/Particle)
 Thermal correction to Energy=                    0.209933
 Thermal correction to Enthalpy=                  0.210877
 Thermal correction to Gibbs Free Energy=         0.158323
 Sum of electronic and zero-point Energies=           -438.615475
 Sum of electronic and thermal Energies=              -438.603492
 Sum of electronic and thermal Enthalpies=            -438.602548
 Sum of electronic and thermal Free Energies=         -438.655102

                     E (Thermal)             CV                S
                      KCal/Mol        Cal/Mol-Kelvin    Cal/Mol-Kelvin
 Total                  131.735             40.869            110.609
 Electronic               0.000              0.000              0.000
 Translational            0.889              2.981             40.702
 Rotational               0.889              2.981             30.618
 Vibrational            129.957             34.907             39.289
 Vibration     1          0.594              1.982              5.406
 Vibration     2          0.595              1.978              4.853
 Vibration     3          0.597              1.974              4.475
 Vibration     4          0.601              1.957              3.700
 Vibration     5          0.611              1.926              2.983
 Vibration     6          0.614              1.916              2.846
 Vibration     7          0.622              1.890              2.536
 Vibration     8          0.642              1.827              2.055
 Vibration     9          0.648              1.807              1.938
 Vibration    10          0.688              1.687              1.459
 Vibration    11          0.700              1.651              1.353
 Vibration    12          0.742              1.535              1.082
 Vibration    13          0.764              1.474              0.970
 Vibration    14          0.842              1.280              0.693
 Vibration    15          0.901              1.148              0.552
 Vibration    16          0.942              1.064              0.477

 Optimization completed.
    -- Stationary point found.
 Normal termination of Gaussian 16 at Tue Jun  1 01:25:45 2021.
