 Gaussian 16, Revision A.03,
 Gaussian 16:  ES64L-G16RevA.03 25-Dec-2016

 -----------------------------
 # opt freq b3lyp/6-31g(2df,p)
 -----------------------------

 -------------------
 Title Card Required
 -------------------
 Symbolic Z-matrix:
 Charge =  0 Multiplicity = 1

 SCF Done:  E(RB3LYP) =  -401.926026989     A.U. after   13 cycles
 SCF Done:  E(RB3LYP) =  -401.930387905     A.U. after   11 cycles
 SCF Done:  E(RB3LYP) =  -401.930836773     A.U. after   10 cycles
 SCF Done:  E(RB3LYP) =  -401.930906150     A.U. after    9 cycles
 SCF Done:  E(RB3LYP) =  -401.930918996     A.U. after    9 cycles
 SCF Done:  E(RB3LYP) =  -401.930921723     A.U. after    8 cycles
 SCF Done:  E(RB3LYP) =  -401.930923164     A.U. after    7 cycles
 SCF Done:  E(RB3LYP) =  -401.930924432     A.U. after    8 cycles
 SCF Done:  E(RB3LYP) =  -401.930925443     A.U. after    8 cycles
 SCF Done:  E(RB3LYP) =  -401.930927336     A.U. after    8 cycles
 SCF Done:  E(RB3LYP) =  -401.931937810     A.U. after   11 cycles
 SCF Done:  E(RB3LYP) =  -401.932001848     A.U. after   11 cycles
 SCF Done:  E(RB3LYP) =  -401.931997317     A.U. after    9 cycles
 SCF Done:  E(RB3LYP) =  -401.932006308     A.U. after    9 cycles
 SCF Done:  E(RB3LYP) =  -401.932006861     A.U. after    7 cycles
 SCF Done:  E(RB3LYP) =  -401.932005689     A.U. after    8 cycles
 SCF Done:  E(RB3LYP) =  -401.932007791     A.U. after    9 cycles
 SCF Done:  E(RB3LYP) =  -401.932008047     A.U. after    8 cycles
 SCF Done:  E(RB3LYP) =  -401.932008078     A.U. after    7 cycles
 Optimization completed.
    -- Stationary point found.
 Normal termination of Gaussian 16 at Tue Jun  1 03:49:33 2021.

 ----------------------------------------------------------------------
 #N Geom=AllCheck Guess=TCheck SCRF=Check GenChk RB3LYP/6-31G(2df,p) Fr
 eq
 ----------------------------------------------------------------------

 Structure from the checkpoint file:  "CNdCpCpNCCNC.chk"
 -------------------
 Title Card Required
 -------------------
 Charge =  0 Multiplicity = 1

                         Standard orientation:
 ---------------------------------------------------------------------
 Center     Atomic      Atomic             Coordinates (Angstroms)
 Number     Number       Type             X           Y           Z
 ---------------------------------------------------------------------
      1          6           0        4.067665   -0.477232    0.054723
      2          7           0        2.672127   -0.871757    0.064742
      3          6           0        1.750196    0.004588   -0.055600
      4          6           0        1.928330    1.504651   -0.163550
      5          7           0        0.443747   -0.455396   -0.146887
      6          6           0       -0.716835    0.280546    0.325565
      7          6           0       -2.001300   -0.372972   -0.186446
      8          7           0       -3.171443    0.345843    0.295143
      9          6           0       -4.430393   -0.268926   -0.104315
     10          1           0        4.687465   -1.376497    0.119210
     11          1           0        4.339668    0.162858    0.907362
     12          1           0        4.365638    0.053498   -0.862387
     13          1           0        2.974864    1.763193   -0.320223
     14          1           0        1.591826    2.005474    0.751215
     15          1           0        1.342939    1.910864   -0.993911
     16          1           0        0.414100   -1.451049    0.036968
     17          1           0       -0.665825    1.307331   -0.052697
     18          1           0       -0.769222    0.347633    1.423942
     19          1           0       -2.059868   -1.401400    0.197168
     20          1           0       -1.948559   -0.455136   -1.287939
     21          1           0       -3.142345    1.300154   -0.050611
     22          1           0       -4.525299   -1.249802    0.375331
     23          1           0       -4.536684   -0.421400   -1.193604
     24          1           0       -5.265693    0.349514    0.236919
 ---------------------------------------------------------------------

 SCF Done:  E(RB3LYP) =  -401.932008078     A.U. after    1 cycles

 The electronic state is 1-A.
 Alpha  occ. eigenvalues --  -14.32776 -14.31658 -14.28015 -10.23889 -10.21474
 Alpha  occ. eigenvalues --  -10.20801 -10.20184 -10.18678 -10.18591  -0.94283
 Alpha  occ. eigenvalues --   -0.90378  -0.86077  -0.74554  -0.72348  -0.67682
 Alpha  occ. eigenvalues --   -0.64434  -0.60912  -0.55007  -0.49435  -0.48648
 Alpha  occ. eigenvalues --   -0.46968  -0.44291  -0.43980  -0.43191  -0.41720
 Alpha  occ. eigenvalues --   -0.39937  -0.39486  -0.38892  -0.37790  -0.37184
 Alpha  occ. eigenvalues --   -0.36058  -0.34811  -0.30618  -0.22728  -0.22534
 Alpha  occ. eigenvalues --   -0.20649
 Alpha virt. eigenvalues --    0.03414   0.07857   0.08961   0.10318   0.12410
 Alpha virt. eigenvalues --    0.13824   0.14033   0.14644   0.16353   0.16697
 Alpha virt. eigenvalues --    0.17248   0.17785   0.18283   0.18491   0.19449

 Mulliken charges:
               1
     1  C   -0.316945
     2  N   -0.288384
     3  C    0.368699
     4  C   -0.489120
     5  N   -0.317219
     6  C   -0.159174
     7  C   -0.131315
     8  N   -0.279758
     9  C   -0.310112
    10  H    0.116037
    11  H    0.105748
    12  H    0.106330
    13  H    0.134464
    14  H    0.139924
    15  H    0.136894
    16  H    0.232013
    17  H    0.104253
    18  H    0.107449
    19  H    0.102162
    20  H    0.087149
    21  H    0.214775
    22  H    0.123502
    23  H    0.094435
    24  H    0.118193
 Sum of Mulliken charges =  -0.00000

 Dipole moment (field-independent basis, Debye):
    X=             -1.4715    Y=              1.9007    Z=             -0.4926  Tot=              2.4537
 Quadrupole moment (field-independent basis, Debye-Ang):
   XX=            -55.7776   YY=            -55.5351   ZZ=            -59.3493
   XY=              3.9296   XZ=              2.2928   YZ=             -1.1889

  Exact polarizability: 130.138  -4.377  81.736   0.562  -0.221  66.965
 Approx polarizability: 149.762 -10.588 123.388   1.392  -0.833 102.148

                      1                      2                      3
                      A                      A                      A
 Frequencies --     32.9097                47.4083                53.8506
 Red. masses --      2.3794                 1.1040                 2.3182
 Frc consts  --      0.0015                 0.0015                 0.0040
 IR Inten    --      0.4890                 0.0506                 1.2757

                      4                      5                      6
                      A                      A                      A
 Frequencies --     81.6687               113.1190               128.7142
 Red. masses --      2.8727                 2.2666                 1.2805
 Frc consts  --      0.0113                 0.0171                 0.0125
 IR Inten    --      0.8889                 1.6959                 1.5046

                      7                      8                      9
                      A                      A                      A
 Frequencies --    173.0806               217.5645               251.2443
 Red. masses --      1.6682                 3.1870                 1.2676
 Frc consts  --      0.0294                 0.0889                 0.0471
 IR Inten    --      4.0651                 2.0254                 2.2030

                     10                     11                     12
                      A                      A                      A
 Frequencies --    263.9667               295.0645               340.2926
 Red. masses --      3.1874                 3.5077                 3.1445
 Frc consts  --      0.1309                 0.1799                 0.2145
 IR Inten    --      3.5605                 0.6448                 3.0476

                     13                     14                     15
                      A                      A                      A
 Frequencies --    418.8581               492.2979               567.1852
 Red. masses --      2.8255                 2.2958                 3.1887
 Frc consts  --      0.2921                 0.3278                 0.6044
 IR Inten    --      2.4247                17.4842                 2.8304

                     16                     17                     18
                      A                      A                      A
 Frequencies --    599.1430               714.5996               778.8669
 Red. masses --      3.1113                 1.3506                 1.3433
 Frc consts  --      0.6580                 0.4064                 0.4801
 IR Inten    --     10.1701               100.9389                75.7594

                     19                     20                     21
                      A                      A                      A
 Frequencies --    802.8662               825.0925               979.4552
 Red. masses --      1.9036                 1.4759                 2.0276
 Frc consts  --      0.7230                 0.5920                 1.1460
 IR Inten    --      5.2278                 9.9828                 0.8001

                     22                     23                     24
                      A                      A                      A
 Frequencies --   1006.3176              1036.7507              1047.1458
 Red. masses --      2.0145                 2.7979                 1.7317
 Frc consts  --      1.2019                 1.7719                 1.1187
 IR Inten    --      8.1445                 5.7826                 3.7101

                     25                     26                     27
                      A                      A                      A
 Frequencies --   1075.5770              1087.2197              1110.3813
 Red. masses --      2.1336                 1.5670                 1.3702
 Frc consts  --      1.4543                 1.0913                 0.9953
 IR Inten    --     19.5449                 0.3139                 0.3657

                     28                     29                     30
                      A                      A                      A
 Frequencies --   1126.6807              1147.5438              1156.1635
 Red. masses --      1.8241                 1.9132                 1.6104
 Frc consts  --      1.3643                 1.4844                 1.2683
 IR Inten    --     25.8354                 1.7471                63.8484

                     31                     32                     33
                      A                      A                      A
 Frequencies --   1182.7272              1222.4703              1266.3682
 Red. masses --      2.2754                 2.1294                 1.4200
 Frc consts  --      1.8753                 1.8749                 1.3417
 IR Inten    --     44.4120                18.7398                32.7253

                     34                     35                     36
                      A                      A                      A
 Frequencies --   1313.2533              1332.6390              1364.0131
 Red. masses --      1.1098                 1.3340                 1.8664
 Frc consts  --      1.1277                 1.3959                 2.0460
 IR Inten    --      5.6226                56.9148                72.9086

                     37                     38                     39
                      A                      A                      A
 Frequencies --   1405.4845              1412.5614              1443.0059
 Red. masses --      1.5154                 1.4950                 1.2157
 Frc consts  --      1.7637                 1.7576                 1.4915
 IR Inten    --     83.1238                21.9954                36.2741

                     40                     41                     42
                      A                      A                      A
 Frequencies --   1460.7531              1473.1430              1478.1092
 Red. masses --      1.1740                 1.2477                 1.1543
 Frc consts  --      1.4760                 1.5954                 1.4859
 IR Inten    --      1.3174                 2.6248                16.7193

                     43                     44                     45
                      A                      A                      A
 Frequencies --   1485.3894              1488.6224              1495.3158
 Red. masses --      1.1400                 1.1130                 1.1693
 Frc consts  --      1.4820                 1.4532                 1.5404
 IR Inten    --      2.1270                37.2483                11.0007

                     46                     47                     48
                      A                      A                      A
 Frequencies --   1501.3509              1511.4777              1514.5853
 Red. masses --      1.0944                 1.0801                 1.0558
 Frc consts  --      1.4534                 1.4538                 1.4270
 IR Inten    --      2.0998                 2.5484                 2.8255

                     49                     50                     51
                      A                      A                      A
 Frequencies --   1519.1327              1525.4957              1730.5482
 Red. masses --      1.0672                 1.0840                 6.4552
 Frc consts  --      1.4511                 1.4863                11.3901
 IR Inten    --     22.6255                 2.3678               372.2284

                     52                     53                     54
                      A                      A                      A
 Frequencies --   2932.0783              2943.1472              2972.4829
 Red. masses --      1.0701                 1.0602                 1.0428
 Frc consts  --      5.4203                 5.4107                 5.4286
 IR Inten    --     33.5096               108.6642                99.5817

                     55                     56                     57
                      A                      A                      A
 Frequencies --   2976.9388              3019.6050              3019.7585
 Red. masses --      1.0681                 1.0877                 1.0996
 Frc consts  --      5.5772                 5.8435                 5.9079
 IR Inten    --     61.6657                29.1224                37.9238

                     58                     59                     60
                      A                      A                      A
 Frequencies --   3042.2354              3054.9410              3066.0644
 Red. masses --      1.0424                 1.0742                 1.0901
 Frc consts  --      5.6840                 5.9065                 6.0378
 IR Inten    --      7.8694                39.0004                40.3724

                     61                     62                     63
                      A                      A                      A
 Frequencies --   3083.2384              3099.8534              3103.1452
 Red. masses --      1.0932                 1.0979                 1.1010
 Frc consts  --      6.1228                 6.2160                 6.2464
 IR Inten    --     44.8134                 9.8610                30.2895

                     64                     65                     66
                      A                      A                      A
 Frequencies --   3154.7602              3507.5673              3562.0490
 Red. masses --      1.0971                 1.0735                 1.0738
 Frc consts  --      6.4335                 7.7812                 8.0272
 IR Inten    --     13.2596                 0.3614                 8.2909

 - Thermochemistry -
 -------------------
 Temperature   298.150 Kelvin.  Pressure   1.00000 Atm.
 Atom     1 has atomic number  6 and mass  12.00000

 Molecular mass:   129.12660 amu.
 Principal axes and moments of inertia in atomic units:
                           1         2         3
     Eigenvalues --   297.922863528.081533737.19528
           X            0.99994   0.01001   0.00340
           Y           -0.00999   0.99994  -0.00459
           Z           -0.00345   0.00456   0.99998
 This molecule is an asymmetric top.
 Rotational symmetry number  1.
 Rotational temperatures (Kelvin)      0.29073     0.02455     0.02318
 Rotational constants (GHZ):           6.05775     0.51154     0.48291
 Zero-point vibrational energy     566045.0 (Joules/Mol)
                                  135.28801 (Kcal/Mol)
 Warning -- explicit consideration of  16 degrees of freedom as
           vibrations may cause significant error
 Vibrational temperatures:     47.35    68.21    77.48   117.50   162.75
          (Kelvin)            185.19   249.02   313.03   361.48   379.79
                              424.53   489.61   602.64   708.31   816.05
                              862.03  1028.15  1120.62  1155.15  1187.12
                             1409.22  1447.87  1491.65  1506.61  1547.52
                             1564.27  1597.59  1621.04  1651.06  1663.46
                             1701.68  1758.86  1822.02  1889.48  1917.37
                             1962.51  2022.18  2032.36  2076.16  2101.70
                             2119.52  2126.67  2137.14  2141.80  2151.43
                             2160.11  2174.68  2179.15  2185.69  2194.85
                             2489.87  4218.61  4234.53  4276.74  4283.15
                             4344.54  4344.76  4377.10  4395.38  4411.38
                             4436.09  4460.00  4464.73  4539.00  5046.61
                             5124.99

 Zero-point correction=                           0.215595 (Hartree/Particle)
 Thermal correction to Energy=                    0.227649
 Thermal correction to Enthalpy=                  0.228593
 Thermal correction to Gibbs Free Energy=         0.176134
 Sum of electronic and zero-point Energies=           -401.716413
 Sum of electronic and thermal Energies=              -401.704359
 Sum of electronic and thermal Enthalpies=            -401.703415
 Sum of electronic and thermal Free Energies=         -401.755874

                     E (Thermal)             CV                S
                      KCal/Mol        Cal/Mol-Kelvin    Cal/Mol-Kelvin
 Total                  142.852             40.941            110.410
 Electronic               0.000              0.000              0.000
 Translational            0.889              2.981             40.480
 Rotational               0.889              2.981             29.753
 Vibrational            141.074             34.979             40.177
 Vibration     1          0.594              1.983              5.646
 Vibration     2          0.595              1.979              4.923
 Vibration     3          0.596              1.976              4.671
 Vibration     4          0.600              1.962              3.850
 Vibration     5          0.607              1.939              3.215
 Vibration     6          0.611              1.925              2.965
 Vibration     7          0.627              1.876              2.402
 Vibration     8          0.646              1.814              1.979
 Vibration     9          0.663              1.761              1.722
 Vibration    10          0.671              1.739              1.635
 Vibration    11          0.689              1.683              1.445
 Vibration    12          0.720              1.595              1.211
 Vibration    13          0.782              1.429              0.896
 Vibration    14          0.848              1.267              0.678
 Vibration    15          0.923              1.102              0.510
 Vibration    16          0.957              1.034              0.451

                           ! Non-Optimized Parameters !
 Normal termination of Gaussian 16 at Tue Jun  1 04:29:45 2021.
