 Gaussian 16, Revision A.03,
 Gaussian 16:  ES64L-G16RevA.03 25-Dec-2016

 -----------------------------
 # opt freq b3lyp/6-31g(2df,p)
 -----------------------------

 -------------------
 Title Card Required
 -------------------
 Symbolic Z-matrix:
 Charge =  0 Multiplicity = 1

 SCF Done:  E(RB3LYP) =  -400.677506637     A.U. after   13 cycles
 SCF Done:  E(RB3LYP) =  -400.686661957     A.U. after   11 cycles
 SCF Done:  E(RB3LYP) =  -400.690556884     A.U. after   12 cycles
 SCF Done:  E(RB3LYP) =  -400.694135536     A.U. after   12 cycles
 SCF Done:  E(RB3LYP) =  -400.695326629     A.U. after   11 cycles
 SCF Done:  E(RB3LYP) =  -400.696529020     A.U. after   12 cycles
 SCF Done:  E(RB3LYP) =  -400.697384521     A.U. after   12 cycles
 SCF Done:  E(RB3LYP) =  -400.698015888     A.U. after   11 cycles
 SCF Done:  E(RB3LYP) =  -400.699293678     A.U. after   11 cycles
 SCF Done:  E(RB3LYP) =  -400.699821946     A.U. after   13 cycles
 SCF Done:  E(RB3LYP) =  -400.701516144     A.U. after   11 cycles
 SCF Done:  E(RB3LYP) =  -400.701532781     A.U. after   10 cycles
 SCF Done:  E(RB3LYP) =  -400.701565443     A.U. after   10 cycles
 SCF Done:  E(RB3LYP) =  -400.701586443     A.U. after   10 cycles
 SCF Done:  E(RB3LYP) =  -400.701576213     A.U. after   10 cycles
 SCF Done:  E(RB3LYP) =  -400.701590362     A.U. after   10 cycles
 SCF Done:  E(RB3LYP) =  -400.701590772     A.U. after    7 cycles
 SCF Done:  E(RB3LYP) =  -400.701590919     A.U. after    7 cycles
 SCF Done:  E(RB3LYP) =  -400.701590939     A.U. after    6 cycles
 Optimization completed.
    -- Stationary point found.
 Normal termination of Gaussian 16 at Tue Jun  1 23:48:30 2021.

 ----------------------------------------------------------------------
 #N Geom=AllCheck Guess=TCheck SCRF=Check GenChk RB3LYP/6-31G(2df,p) Fr
 eq
 ----------------------------------------------------------------------

 Structure from the checkpoint file:  "CNdC1CCN1CNC.chk"
 -------------------
 Title Card Required
 -------------------
 Charge =  0 Multiplicity = 1

                         Standard orientation:
 ---------------------------------------------------------------------
 Center     Atomic      Atomic             Coordinates (Angstroms)
 Number     Number       Type             X           Y           Z
 ---------------------------------------------------------------------
      1          6           0       -2.675524   -1.630815    0.149572
      2          7           0       -1.377856   -1.170774   -0.303316
      3          6           0       -1.102026    0.056735   -0.187952
      4          6           0       -1.690266    1.338237    0.429510
      5          6           0       -0.278282    1.945365    0.183248
      6          7           0        0.055600    0.723907   -0.567461
      7          6           0        1.351566    0.136513   -0.768879
      8          7           0        1.944628   -0.309886    0.490879
      9          6           0        3.307681   -0.801908    0.330005
     10          1           0       -2.551228   -2.430474    0.890299
     11          1           0       -3.232233   -2.065503   -0.690170
     12          1           0       -3.303665   -0.846448    0.599552
     13          1           0       -1.995014    1.252945    1.473768
     14          1           0       -2.495054    1.798257   -0.147272
     15          1           0        0.313842    2.066567    1.096498
     16          1           0       -0.232639    2.861947   -0.413230
     17          1           0        2.017928    0.887305   -1.211132
     18          1           0        1.229421   -0.676265   -1.502953
     19          1           0        1.358235   -1.054714    0.857262
     20          1           0        3.960131    0.022822    0.019878
     21          1           0        3.417062   -1.609514   -0.415667
     22          1           0        3.677721   -1.174418    1.289428
 ---------------------------------------------------------------------

 SCF Done:  E(RB3LYP) =  -400.701590939     A.U. after    1 cycles

 The electronic state is 1-A.
 Alpha  occ. eigenvalues --  -14.33449 -14.31001 -14.28812 -10.23752 -10.23132
 Alpha  occ. eigenvalues --  -10.21715 -10.19903 -10.19456 -10.19178  -0.97523
 Alpha  occ. eigenvalues --   -0.89738  -0.87281  -0.76268  -0.69185  -0.66873
 Alpha  occ. eigenvalues --   -0.62978  -0.62600  -0.52645  -0.49324  -0.48836
 Alpha  occ. eigenvalues --   -0.46737  -0.45049  -0.43832  -0.41208  -0.40941
 Alpha  occ. eigenvalues --   -0.39766  -0.37731  -0.36888  -0.36676  -0.35682
 Alpha  occ. eigenvalues --   -0.35201  -0.31201  -0.23627  -0.22363  -0.21088
 Alpha virt. eigenvalues --    0.04082   0.09292   0.09958   0.11199   0.12463
 Alpha virt. eigenvalues --    0.13425   0.14111   0.14918   0.15903   0.16658
 Alpha virt. eigenvalues --    0.17394   0.17969   0.18500   0.19080   0.19365

 Mulliken charges:
               1
     1  C   -0.325522
     2  N   -0.338750
     3  C    0.407203
     4  C   -0.351642
     5  C   -0.172624
     6  N   -0.093753
     7  C   -0.116475
     8  N   -0.294669
     9  C   -0.308846
    10  H    0.116364
    11  H    0.119780
    12  H    0.096855
    13  H    0.126224
    14  H    0.126401
    15  H    0.119996
    16  H    0.104624
    17  H    0.105134
    18  H    0.112290
    19  H    0.229951
    20  H    0.119472
    21  H    0.098028
    22  H    0.119959
 Sum of Mulliken charges =  -0.00000

 Dipole moment (field-independent basis, Debye):
    X=              0.1165    Y=              1.1830    Z=              0.6137  Tot=              1.3378
 Quadrupole moment (field-independent basis, Debye-Ang):
   XX=            -51.4419   YY=            -54.5916   ZZ=            -56.2563
   XY=             -2.4309   XZ=             -2.2251   YZ=             -1.8697

  Exact polarizability: 104.460   7.059  93.128  -3.244   0.437  67.431
 Approx polarizability: 127.498  13.235 137.438  -5.413   0.764 102.494

                      1                      2                      3
                      A                      A                      A
 Frequencies --     36.6161                79.2741               104.6877
 Red. masses --      3.2168                 2.9707                 1.8868
 Frc consts  --      0.0025                 0.0110                 0.0122
 IR Inten    --      1.0962                 5.4170                 4.2057

                      4                      5                      6
                      A                      A                      A
 Frequencies --    133.0134               168.2031               194.8848
 Red. masses --      1.0950                 1.8282                 2.6513
 Frc consts  --      0.0114                 0.0305                 0.0593
 IR Inten    --      1.6193                 1.2520                 0.7088

                      7                      8                      9
                      A                      A                      A
 Frequencies --    229.4871               240.3215               292.0184
 Red. masses --      2.2305                 1.5542                 2.7835
 Frc consts  --      0.0692                 0.0529                 0.1398
 IR Inten    --      4.3543                 2.0865                 0.5538

                     10                     11                     12
                      A                      A                      A
 Frequencies --    311.9150               427.8237               548.3713
 Red. masses --      2.3972                 4.0352                 3.0339
 Frc consts  --      0.1374                 0.4352                 0.5375
 IR Inten    --      2.0194                 8.1575                10.1606

                     13                     14                     15
                      A                      A                      A
 Frequencies --    568.8300               691.9179               781.4025
 Red. masses --      3.4524                 4.6727                 3.3120
 Frc consts  --      0.6582                 1.3180                 1.1915
 IR Inten    --      2.1608                 6.5762                 3.9677

                     16                     17                     18
                      A                      A                      A
 Frequencies --    814.3657               823.6015               947.3350
 Red. masses --      1.1879                 1.3114                 2.8265
 Frc consts  --      0.4642                 0.5241                 1.4946
 IR Inten    --      1.6471                88.2443                 0.0863

                     19                     20                     21
                      A                      A                      A
 Frequencies --    950.3514               980.7136              1045.7978
 Red. masses --      2.5757                 1.7250                 2.6000
 Frc consts  --      1.3706                 0.9775                 1.6754
 IR Inten    --     16.9490                13.6382                 3.7188

                     22                     23                     24
                      A                      A                      A
 Frequencies --   1051.9148              1092.8190              1119.8685
 Red. masses --      1.7359                 4.2984                 2.4105
 Frc consts  --      1.1317                 3.0245                 1.7811
 IR Inten    --      1.6728                40.9446                21.3696

                     25                     26                     27
                      A                      A                      A
 Frequencies --   1128.2576              1134.0143              1147.9738
 Red. masses --      1.8915                 1.3331                 1.3189
 Frc consts  --      1.4187                 1.0101                 1.0240
 IR Inten    --     23.0761                 0.6560                31.1694

                     28                     29                     30
                      A                      A                      A
 Frequencies --   1166.3965              1180.9293              1196.7297
 Red. masses --      1.6981                 1.6940                 1.2313
 Frc consts  --      1.3611                 1.3919                 1.0390
 IR Inten    --     11.9505                14.3711                 1.0214

                     31                     32                     33
                      A                      A                      A
 Frequencies --   1214.2446              1259.4030              1275.2675
 Red. masses --      1.4836                 1.9021                 1.6915
 Frc consts  --      1.2888                 1.7775                 1.6208
 IR Inten    --      1.0655                25.7554                42.1922

                     34                     35                     36
                      A                      A                      A
 Frequencies --   1338.6871              1397.6800              1412.7848
 Red. masses --      1.8557                 1.4219                 2.2189
 Frc consts  --      1.9594                 1.6365                 2.6094
 IR Inten    --     37.2395                99.0615                48.8676

                     37                     38                     39
                      A                      A                      A
 Frequencies --   1447.5287              1458.0694              1467.2477
 Red. masses --      1.1902                 1.1665                 1.1152
 Frc consts  --      1.4694                 1.4612                 1.4145
 IR Inten    --     41.3586                 1.0268                 0.4857

                     40                     41                     42
                      A                      A                      A
 Frequencies --   1484.7080              1486.4429              1489.0430
 Red. masses --      1.1904                 1.0435                 1.0721
 Frc consts  --      1.5460                 1.3585                 1.4006
 IR Inten    --     25.6306                 1.7366                 5.3043

                     43                     44                     45
                      A                      A                      A
 Frequencies --   1498.4404              1503.6261              1517.8895
 Red. masses --      1.0861                 1.0537                 1.0509
 Frc consts  --      1.4368                 1.4036                 1.4265
 IR Inten    --     10.1800                 5.7238                11.6870

                     46                     47                     48
                      A                      A                      A
 Frequencies --   1523.5352              1802.0463              2946.8059
 Red. masses --      1.1098                 9.9592                 1.0584
 Frc consts  --      1.5178                19.0549                 5.4152
 IR Inten    --      4.0804               427.9533                84.4281

                     49                     50                     51
                      A                      A                      A
 Frequencies --   2976.8004              2978.0013              3036.6113
 Red. masses --      1.0663                 1.0418                 1.0561
 Frc consts  --      5.5673                 5.4438                 5.7376
 IR Inten    --     61.5334                77.5918                54.2570

                     52                     53                     54
                      A                      A                      A
 Frequencies --   3046.4240              3048.2062              3052.2391
 Red. masses --      1.0913                 1.0936                 1.0756
 Frc consts  --      5.9671                 5.9868                 5.9041
 IR Inten    --     55.4879                31.4796                44.6204

                     55                     56                     57
                      A                      A                      A
 Frequencies --   3057.7527              3081.4489              3084.6087
 Red. masses --      1.1011                 1.0746                 1.0950
 Frc consts  --      6.0659                 6.0117                 6.1385
 IR Inten    --     30.5844                13.0059                26.9458

                     58                     59                     60
                      A                      A                      A
 Frequencies --   3102.9731              3137.1104              3507.1395
 Red. masses --      1.1001                 1.1072                 1.0736
 Frc consts  --      6.2405                 6.4198                 7.7805
 IR Inten    --     27.3237                13.3957                 1.3575

 - Thermochemistry -
 -------------------
 Temperature   298.150 Kelvin.  Pressure   1.00000 Atm.
 Atom     1 has atomic number  6 and mass  12.00000

 Molecular mass:   127.11095 amu.
 Principal axes and moments of inertia in atomic units:
                           1         2         3
     Eigenvalues --   720.688971743.056592232.33253
           X            0.99994  -0.00542  -0.00902
           Y            0.00539   0.99998  -0.00280
           Z            0.00904   0.00276   0.99996
 This molecule is an asymmetric top.
 Rotational symmetry number  1.
 Warning -- assumption of classical behavior for rotation
           may cause significant error
 Rotational temperatures (Kelvin)      0.12018     0.04969     0.03880
 Rotational constants (GHZ):           2.50419     1.03539     0.80846
 Zero-point vibrational energy     509744.4 (Joules/Mol)
                                  121.83182 (Kcal/Mol)
 Warning -- explicit consideration of  13 degrees of freedom as
           vibrations may cause significant error
 Vibrational temperatures:     52.68   114.06   150.62   191.38   242.01
          (Kelvin)            280.40   330.18   345.77   420.15   448.78
                              615.54   788.98   818.42   995.52  1124.26
                             1171.69  1184.98  1363.00  1367.34  1411.03
                             1504.67  1513.47  1572.32  1611.24  1623.31
                             1631.59  1651.68  1678.18  1699.09  1721.83
                             1747.03  1812.00  1834.83  1926.07  2010.95
                             2032.68  2082.67  2097.84  2111.04  2136.16
                             2138.66  2142.40  2155.92  2163.38  2183.90
                             2192.03  2592.74  4239.80  4282.95  4284.68
                             4369.01  4383.12  4385.69  4391.49  4399.42
                             4433.52  4438.06  4464.49  4513.60  5045.99

 Zero-point correction=                           0.194151 (Hartree/Particle)
 Thermal correction to Energy=                    0.204529
 Thermal correction to Enthalpy=                  0.205473
 Thermal correction to Gibbs Free Energy=         0.157662
 Sum of electronic and zero-point Energies=           -400.507440
 Sum of electronic and thermal Energies=              -400.497062
 Sum of electronic and thermal Enthalpies=            -400.496118
 Sum of electronic and thermal Free Energies=         -400.543929

                     E (Thermal)             CV                S
                      KCal/Mol        Cal/Mol-Kelvin    Cal/Mol-Kelvin
 Total                  128.344             36.387            100.628
 Electronic               0.000              0.000              0.000
 Translational            0.889              2.981             40.433
 Rotational               0.889              2.981             29.418
 Vibrational            126.567             30.426             30.777
 Vibration     1          0.594              1.982              5.434
 Vibration     2          0.600              1.963              3.909
 Vibration     3          0.605              1.945              3.365
 Vibration     4          0.613              1.920              2.902
 Vibration     5          0.625              1.882              2.455
 Vibration     6          0.636              1.847              2.181
 Vibration     7          0.652              1.796              1.883
 Vibration     8          0.657              1.779              1.800
 Vibration     9          0.687              1.689              1.462
 Vibration    10          0.700              1.651              1.352
 Vibration    11          0.789              1.410              0.866
 Vibration    12          0.904              1.143              0.548
 Vibration    13          0.925              1.099              0.506

 Optimization completed.
    -- Stationary point found.
 Normal termination of Gaussian 16 at Wed Jun  2 00:24:42 2021.
