 Gaussian 16, Revision A.03,
 Gaussian 16:  ES64L-G16RevA.03 25-Dec-2016

 -----------------------------
 # opt freq b3lyp/6-31g(2df,p)
 -----------------------------

 -------------------
 Title Card Required
 -------------------
 Symbolic Z-matrix:
 Charge =  0 Multiplicity = 1

 SCF Done:  E(RB3LYP) =  -488.097287482     A.U. after   16 cycles
 SCF Done:  E(RB3LYP) =  -488.106110032     A.U. after   13 cycles
 SCF Done:  E(RB3LYP) =  -488.107417147     A.U. after   13 cycles
 SCF Done:  E(RB3LYP) =  -488.108320960     A.U. after   14 cycles
 SCF Done:  E(RB3LYP) =  -488.109309667     A.U. after   14 cycles
 SCF Done:  E(RB3LYP) =  -488.109878834     A.U. after   13 cycles
 SCF Done:  E(RB3LYP) =  -488.110117694     A.U. after   13 cycles
 SCF Done:  E(RB3LYP) =  -488.110254753     A.U. after   12 cycles
 SCF Done:  E(RB3LYP) =  -488.110372122     A.U. after   13 cycles
 SCF Done:  E(RB3LYP) =  -488.110732068     A.U. after   11 cycles
 SCF Done:  E(RB3LYP) =  -488.113270574     A.U. after   11 cycles
 SCF Done:  E(RB3LYP) =  -488.113280896     A.U. after   10 cycles
 SCF Done:  E(RB3LYP) =  -488.113286140     A.U. after   10 cycles
 SCF Done:  E(RB3LYP) =  -488.113287800     A.U. after    8 cycles
 SCF Done:  E(RB3LYP) =  -488.113288137     A.U. after    7 cycles
 SCF Done:  E(RB3LYP) =  -488.113288432     A.U. after    8 cycles
 SCF Done:  E(RB3LYP) =  -488.113288497     A.U. after    6 cycles
 SCF Done:  E(RB3LYP) =  -488.113288647     A.U. after    7 cycles
 SCF Done:  E(RB3LYP) =  -488.113288718     A.U. after    7 cycles
 Optimization completed.
    -- Stationary point found.
 Normal termination of Gaussian 16 at Tue Jun  1 17:03:23 2021.

 ----------------------------------------------------------------------
 #N Geom=AllCheck Guess=TCheck SCRF=Check GenChk RB3LYP/6-31G(2df,p) Fr
 eq
 ----------------------------------------------------------------------

 Structure from the checkpoint file:  "CNdCNNdNCpNpCN.chk"
 -------------------
 Title Card Required
 -------------------
 Charge =  0 Multiplicity = 1

                         Standard orientation:
 ---------------------------------------------------------------------
 Center     Atomic      Atomic             Coordinates (Angstroms)
 Number     Number       Type             X           Y           Z
 ---------------------------------------------------------------------
      1          6           0        4.934913   -0.273697    0.346432
      2          7           0        3.730924   -0.040264   -0.422478
      3          6           0        2.627429   -0.081236    0.194590
      4          7           0        1.432828    0.128870   -0.460149
      5          7           0        0.272311    0.077388    0.220953
      6          7           0       -0.727000    0.297413   -0.494710
      7          6           0       -1.984014    0.260111    0.284462
      8          7           0       -2.694159    1.519461    0.202421
      9          6           0       -2.820874   -0.897335   -0.276583
     10          7           0       -4.208451   -0.837433    0.178784
     11          1           0        5.478585   -1.130145   -0.069509
     12          1           0        4.750953   -0.466835    1.415621
     13          1           0        5.600583    0.593436    0.262804
     14          1           0        2.487433   -0.277519    1.264249
     15          1           0        1.410505    0.321503   -1.457962
     16          1           0       -1.737528    0.068309    1.338377
     17          1           0       -3.112562    1.634163   -0.715547
     18          1           0       -2.047784    2.289312    0.344494
     19          1           0       -2.288626   -1.828906   -0.021312
     20          1           0       -2.810286   -0.822290   -1.372021
     21          1           0       -4.241905   -0.737780    1.188729
     22          1           0       -4.679266   -1.708356   -0.045075
 ---------------------------------------------------------------------

 SCF Done:  E(RB3LYP) =  -488.113288718     A.U. after    1 cycles

 The electronic state is 1-A.
 Alpha  occ. eigenvalues --  -14.41778 -14.39362 -14.35586 -14.31336 -14.30948
 Alpha  occ. eigenvalues --  -14.30542 -10.25716 -10.23441 -10.20553 -10.20459
 Alpha  occ. eigenvalues --   -1.07982  -0.95559  -0.90824  -0.87789  -0.85784
 Alpha  occ. eigenvalues --   -0.73954  -0.69523  -0.64791  -0.62589  -0.58325
 Alpha  occ. eigenvalues --   -0.52342  -0.50488  -0.49445  -0.47513  -0.46048
 Alpha  occ. eigenvalues --   -0.45489  -0.44352  -0.42356  -0.41758  -0.39596
 Alpha  occ. eigenvalues --   -0.39115  -0.37728  -0.34514  -0.32857  -0.26682
 Alpha  occ. eigenvalues --   -0.26004  -0.24328  -0.23424  -0.22373
 Alpha virt. eigenvalues --   -0.03222   0.03473   0.08157   0.09561   0.11300
 Alpha virt. eigenvalues --    0.12015   0.13341   0.13554   0.14479   0.15714
 Alpha virt. eigenvalues --    0.16971   0.17225   0.17339   0.19234   0.19531

 Mulliken charges:
               1
     1  C   -0.310423
     2  N   -0.233245
     3  C    0.147638
     4  N   -0.218363
     5  N   -0.051682
     6  N   -0.191469
     7  C    0.079524
     8  N   -0.482245
     9  C   -0.146969
    10  N   -0.503545
    11  H    0.128106
    12  H    0.099168
    13  H    0.128107
    14  H    0.105923
    15  H    0.255537
    16  H    0.079484
    17  H    0.236300
    18  H    0.226359
    19  H    0.087890
    20  H    0.107574
    21  H    0.229791
    22  H    0.226540
 Sum of Mulliken charges =  -0.00000

 Dipole moment (field-independent basis, Debye):
    X=              0.5336    Y=             -0.9078    Z=              0.7326  Tot=              1.2828
 Quadrupole moment (field-independent basis, Debye-Ang):
   XX=            -63.1860   YY=            -56.5688   ZZ=            -59.1085
   XY=              4.7961   XZ=              3.8735   YZ=             -1.7435

  Exact polarizability: 173.274  -5.031  67.692   0.086  -1.286  72.487
 Approx polarizability: 216.077 -10.063  97.200  -2.392  -2.451 114.631

                      1                      2                      3
                      A                      A                      A
 Frequencies --     32.5204                59.9895                82.0581
 Red. masses --      4.0734                 2.7287                 3.0282
 Frc consts  --      0.0025                 0.0058                 0.0120
 IR Inten    --      0.1853                 2.3279                 0.3619

                      4                      5                      6
                      A                      A                      A
 Frequencies --    103.0739               123.3613               146.8108
 Red. masses --      3.1363                 2.1985                 1.1377
 Frc consts  --      0.0196                 0.0197                 0.0144
 IR Inten    --      2.7318                 5.2312                81.2443

                      7                      8                      9
                      A                      A                      A
 Frequencies --    196.0012               210.5480               276.4478
 Red. masses --      1.4007                 1.7655                 3.2049
 Frc consts  --      0.0317                 0.0461                 0.1443
 IR Inten    --      4.3688                 1.3033                14.3589

                     10                     11                     12
                      A                      A                      A
 Frequencies --    278.2531               292.2363               329.5110
 Red. masses --      2.2941                 4.0383                 2.6498
 Frc consts  --      0.1047                 0.2032                 0.1695
 IR Inten    --      5.1929                 0.8781                 2.4754

                     13                     14                     15
                      A                      A                      A
 Frequencies --    358.2333               445.1938               474.1254
 Red. masses --      3.8413                 3.1929                 4.5008
 Frc consts  --      0.2904                 0.3729                 0.5961
 IR Inten    --      5.0978                 8.2668                16.0448

                     16                     17                     18
                      A                      A                      A
 Frequencies --    507.9534               612.0171               645.7369
 Red. masses --      3.8356                 3.9491                 1.2797
 Frc consts  --      0.5831                 0.8715                 0.3144
 IR Inten    --     20.2040                16.4123                81.6348

                     19                     20                     21
                      A                      A                      A
 Frequencies --    675.6776               830.4722               843.6471
 Red. masses --      3.1816                 1.4164                 1.5248
 Frc consts  --      0.8558                 0.5756                 0.6394
 IR Inten    --     16.1084                13.9502               428.9083

                     22                     23                     24
                      A                      A                      A
 Frequencies --    913.8794               991.4592               997.9960
 Red. masses --      2.1571                 1.6153                 1.3853
 Frc consts  --      1.0615                 0.9355                 0.8129
 IR Inten    --      8.6746                17.2808                 5.6547

                     25                     26                     27
                      A                      A                      A
 Frequencies --   1028.0366              1045.4579              1089.4888
 Red. masses --      3.2353                 5.2252                 2.6063
 Frc consts  --      2.0146                 3.3649                 1.8227
 IR Inten    --     96.9990                22.2268                15.5049

                     28                     29                     30
                      A                      A                      A
 Frequencies --   1139.6305              1141.7892              1150.3212
 Red. masses --      1.5732                 1.3642                 1.4676
 Frc consts  --      1.2038                 1.0479                 1.1442
 IR Inten    --     16.0050                 0.6645                17.7517

                     31                     32                     33
                      A                      A                      A
 Frequencies --   1183.0583              1207.6957              1254.7743
 Red. masses --      1.9382                 2.3915                 1.5202
 Frc consts  --      1.5983                 2.0551                 1.4102
 IR Inten    --    165.8429               243.1967                36.1767

                     34                     35                     36
                      A                      A                      A
 Frequencies --   1281.8197              1321.7425              1343.7978
 Red. masses --      2.6345                 1.2535                 1.2538
 Frc consts  --      2.5503                 1.2903                 1.3339
 IR Inten    --     11.2078                 7.8865                 2.2163

                     37                     38                     39
                      A                      A                      A
 Frequencies --   1359.8299              1404.2093              1440.6331
 Red. masses --      1.3702                 1.2800                 1.5475
 Frc consts  --      1.4928                 1.4871                 1.8923
 IR Inten    --      5.8113                 9.2852                 3.4947

                     40                     41                     42
                      A                      A                      A
 Frequencies --   1448.5205              1474.2256              1479.3881
 Red. masses --      1.1925                 1.9514                 1.0430
 Frc consts  --      1.4742                 2.4988                 1.3450
 IR Inten    --     51.8146                43.9194                 2.3847

                     43                     44                     45
                      A                      A                      A
 Frequencies --   1508.0177              1518.6224              1589.0154
 Red. masses --      1.1728                 1.0817                 8.7913
 Frc consts  --      1.5714                 1.4699                13.0786
 IR Inten    --      4.6864                 1.6513               270.4442

                     46                     47                     48
                      A                      A                      A
 Frequencies --   1652.7704              1657.8869              1769.1896
 Red. masses --      1.0898                 1.0956                 6.8914
 Frc consts  --      1.7539                 1.7742                12.7089
 IR Inten    --      5.6488                52.8061               424.5877

                     49                     50                     51
                      A                      A                      A
 Frequencies --   2959.0140              2971.7406              3004.7046
 Red. masses --      1.0714                 1.0463                 1.0823
 Frc consts  --      5.5271                 5.4440                 5.7568
 IR Inten    --     59.7335                86.2364                18.8459

                     52                     53                     54
                      A                      A                      A
 Frequencies --   3036.4021              3055.6952              3060.2457
 Red. masses --      1.0907                 1.0858                 1.0893
 Frc consts  --      5.9246                 5.9731                 6.0106
 IR Inten    --     44.7924                54.9839                18.8857

                     55                     56                     57
                      A                      A                      A
 Frequencies --   3072.0595              3495.1873              3498.9368
 Red. masses --      1.1012                 1.0488                 1.0481
 Frc consts  --      6.1233                 7.5490                 7.5603
 IR Inten    --     24.0658                 0.2485                 2.5417

                     58                     59                     60
                      A                      A                      A
 Frequencies --   3520.1500              3576.5941              3585.1233
 Red. masses --      1.0755                 1.0929                 1.0936
 Frc consts  --      7.8523                 8.2374                 8.2819
 IR Inten    --     15.1290                 0.5291                 2.0634

 - Thermochemistry -
 -------------------
 Temperature   298.150 Kelvin.  Pressure   1.00000 Atm.
 Atom     1 has atomic number  6 and mass  12.00000

 Molecular mass:   144.11234 amu.
 Principal axes and moments of inertia in atomic units:
                           1         2         3
     Eigenvalues --   352.214714602.433474769.73533
           X            0.99998   0.00217   0.00570
           Y           -0.00203   0.99968  -0.02509
           Z           -0.00575   0.02508   0.99967
 This molecule is an asymmetric top.
 Rotational symmetry number  1.
 Rotational temperatures (Kelvin)      0.24591     0.01882     0.01816
 Rotational constants (GHZ):           5.12398     0.39213     0.37837
 Zero-point vibrational energy     488991.4 (Joules/Mol)
                                  116.87175 (Kcal/Mol)
 Warning -- explicit consideration of  17 degrees of freedom as
           vibrations may cause significant error
 Vibrational temperatures:     46.79    86.31   118.06   148.30   177.49
          (Kelvin)            211.23   282.00   302.93   397.75   400.34
                              420.46   474.09   515.42   640.53   682.16
                              730.83   880.56   929.07   972.15  1194.86
                             1213.82  1314.87  1426.49  1435.89  1479.12
                             1504.18  1567.53  1639.67  1642.78  1655.06
                             1702.16  1737.60  1805.34  1844.25  1901.69
                             1933.43  1956.49  2020.34  2072.75  2084.10
                             2121.08  2128.51  2169.70  2184.96  2286.24
                             2377.97  2385.33  2545.47  4257.36  4275.67
                             4323.10  4368.71  4396.46  4403.01  4420.01
                             5028.80  5034.19  5064.71  5145.92  5158.19

 Zero-point correction=                           0.186247 (Hartree/Particle)
 Thermal correction to Energy=                    0.198477
 Thermal correction to Enthalpy=                  0.199421
 Thermal correction to Gibbs Free Energy=         0.147044
 Sum of electronic and zero-point Energies=           -487.927042
 Sum of electronic and thermal Energies=              -487.914811
 Sum of electronic and thermal Enthalpies=            -487.913867
 Sum of electronic and thermal Free Energies=         -487.966244

                     E (Thermal)             CV                S
                      KCal/Mol        Cal/Mol-Kelvin    Cal/Mol-Kelvin
 Total                  124.546             42.382            110.237
 Electronic               0.000              0.000              0.000
 Translational            0.889              2.981             40.807
 Rotational               0.889              2.981             30.426
 Vibrational            122.769             36.420             39.004
 Vibration     1          0.594              1.983              5.669
 Vibration     2          0.597              1.973              4.458
 Vibration     3          0.600              1.961              3.841
 Vibration     4          0.605              1.947              3.395
 Vibration     5          0.610              1.930              3.047
 Vibration     6          0.617              1.906              2.713
 Vibration     7          0.636              1.845              2.170
 Vibration     8          0.643              1.825              2.039
 Vibration     9          0.678              1.717              1.556
 Vibration    10          0.679              1.714              1.544
 Vibration    11          0.688              1.688              1.461
 Vibration    12          0.712              1.617              1.262
 Vibration    13          0.733              1.558              1.130
 Vibration    14          0.805              1.371              0.810
 Vibration    15          0.831              1.307              0.726
 Vibration    16          0.863              1.232              0.639
 Vibration    17          0.971              1.006              0.429

 Optimization completed.
    -- Stationary point found.
 Normal termination of Gaussian 16 at Tue Jun  1 17:33:01 2021.
