 Gaussian 16, Revision A.03,
 Gaussian 16:  ES64L-G16RevA.03 25-Dec-2016

 -----------------------------
 # opt freq b3lyp/6-31g(2df,p)
 -----------------------------

 -------------------
 Title Card Required
 -------------------
 Symbolic Z-matrix:
 Charge =  0 Multiplicity = 1

 SCF Done:  E(RB3LYP) =  -524.923717348     A.U. after   15 cycles
 SCF Done:  E(RB3LYP) =  -524.959649683     A.U. after   13 cycles
 SCF Done:  E(RB3LYP) =  -524.966607492     A.U. after   12 cycles
 SCF Done:  E(RB3LYP) =  -524.975318890     A.U. after   13 cycles
 SCF Done:  E(RB3LYP) =  -524.981048732     A.U. after   12 cycles
 SCF Done:  E(RB3LYP) =  -524.985515061     A.U. after   12 cycles
 SCF Done:  E(RB3LYP) =  -524.986196924     A.U. after   14 cycles
 SCF Done:  E(RB3LYP) =  -524.986389155     A.U. after   11 cycles
 SCF Done:  E(RB3LYP) =  -524.986427209     A.U. after   10 cycles
 SCF Done:  E(RB3LYP) =  -524.986474903     A.U. after   10 cycles
 SCF Done:  E(RB3LYP) =  -524.988960342     A.U. after   14 cycles
 SCF Done:  E(RB3LYP) =  -524.989440050     A.U. after   11 cycles
 SCF Done:  E(RB3LYP) =  -524.989455722     A.U. after   11 cycles
 SCF Done:  E(RB3LYP) =  -524.989546128     A.U. after   10 cycles
 SCF Done:  E(RB3LYP) =  -524.989547388     A.U. after    9 cycles
 SCF Done:  E(RB3LYP) =  -524.989549670     A.U. after    9 cycles
 SCF Done:  E(RB3LYP) =  -524.989550001     A.U. after    7 cycles
 SCF Done:  E(RB3LYP) =  -524.989550202     A.U. after    8 cycles
 SCF Done:  E(RB3LYP) =  -524.989550303     A.U. after    7 cycles
 Optimization completed.
    -- Stationary point found.
 Normal termination of Gaussian 16 at Tue Jun  1 06:09:03 2021.

 ----------------------------------------------------------------------
 #N Geom=AllCheck Guess=TCheck SCRF=Check GenChk RB3LYP/6-31G(2df,p) Fr
 eq
 ----------------------------------------------------------------------

 Structure from the checkpoint file:  "CNdCNCdNNpNpCCtN.chk"
 -------------------
 Title Card Required
 -------------------
 Charge =  0 Multiplicity = 1

                         Standard orientation:
 ---------------------------------------------------------------------
 Center     Atomic      Atomic             Coordinates (Angstroms)
 Number     Number       Type             X           Y           Z
 ---------------------------------------------------------------------
      1          6           0        5.292792    0.244136   -0.022488
      2          7           0        4.063467   -0.518468   -0.004950
      3          6           0        2.973379    0.122625    0.039861
      4          7           0        1.753762   -0.517353    0.063147
      5          6           0        0.532701    0.116543    0.100721
      6          7           0       -0.548777   -0.559374    0.113043
      7          7           0       -1.769559    0.109423    0.229015
      8          7           0       -1.867354    1.447450   -0.201177
      9          6           0       -2.800808   -0.707384   -0.409134
     10          6           0       -4.142064   -0.295477    0.011054
     11          7           0       -5.216072   -0.009414    0.322911
     12          1           0        5.868382   -0.001058   -0.922810
     13          1           0        5.914828   -0.035656    0.835884
     14          1           0        5.141137    1.335875    0.003251
     15          1           0        2.892283    1.218978    0.064600
     16          1           0        1.762960   -1.528106    0.046879
     17          1           0        0.589898    1.205253    0.130969
     18          1           0       -1.311395    1.602875   -1.047402
     19          1           0       -1.531571    2.062040    0.532518
     20          1           0       -2.626297   -1.742914   -0.108616
     21          1           0       -2.744489   -0.665787   -1.509277
 ---------------------------------------------------------------------

 SCF Done:  E(RB3LYP) =  -524.989550303     A.U. after    1 cycles

 The electronic state is 1-A.
 Alpha  occ. eigenvalues --  -14.40928 -14.38297 -14.36733 -14.35894 -14.32473
 Alpha  occ. eigenvalues --  -14.31781 -10.27074 -10.26619 -10.25914 -10.21654
 Alpha  occ. eigenvalues --  -10.21005  -1.04764  -0.98968  -0.91978  -0.89703
 Alpha  occ. eigenvalues --   -0.88069  -0.82152  -0.72926  -0.69248  -0.64004
 Alpha  occ. eigenvalues --   -0.61773  -0.56545  -0.53977  -0.53141  -0.49182
 Alpha  occ. eigenvalues --   -0.48864  -0.48371  -0.45495  -0.44753  -0.44448
 Alpha  occ. eigenvalues --   -0.41763  -0.39884  -0.36138  -0.35127  -0.32927
 Alpha  occ. eigenvalues --   -0.32351  -0.31755  -0.28168  -0.27653  -0.26370
 Alpha  occ. eigenvalues --   -0.21338
 Alpha virt. eigenvalues --   -0.01038   0.02699   0.03521   0.04719   0.05579
 Alpha virt. eigenvalues --    0.08381   0.10265   0.11422   0.11965   0.12987
 Alpha virt. eigenvalues --    0.15050   0.15547   0.16554   0.16861   0.17021

 Mulliken charges:
               1
     1  C   -0.312292
     2  N   -0.239122
     3  C    0.129904
     4  N   -0.311008
     5  C    0.120272
     6  N   -0.243488
     7  N   -0.046123
     8  N   -0.445892
     9  C   -0.235202
    10  C    0.288937
    11  N   -0.306487
    12  H    0.129047
    13  H    0.129830
    14  H    0.096258
    15  H    0.089081
    16  H    0.270457
    17  H    0.095781
    18  H    0.224302
    19  H    0.260447
    20  H    0.170302
    21  H    0.134997
 Sum of Mulliken charges =  -0.00000

 Dipole moment (field-independent basis, Debye):
    X=              4.7862    Y=              1.5518    Z=             -1.4075  Tot=              5.2246
 Quadrupole moment (field-independent basis, Debye-Ang):
   XX=            -95.2933   YY=            -59.7132   ZZ=            -64.1689
   XY=              8.7657   XZ=              5.1820   YZ=              0.9186

  Exact polarizability: 189.554  -1.474  79.724  -2.153   0.884  59.893
 Approx polarizability: 240.154  -8.076 125.117  -9.355   1.636  93.723

                      1                      2                      3
                      A                      A                      A
 Frequencies --     36.2165                60.7461                81.3915
 Red. masses --      5.9543                 5.5628                 4.8193
 Frc consts  --      0.0046                 0.0121                 0.0188
 IR Inten    --      1.6523                 3.6105                 1.4709

                      4                      5                      6
                      A                      A                      A
 Frequencies --    102.4959               138.8577               196.1142
 Red. masses --      1.8067                 5.0415                 1.4514
 Frc consts  --      0.0112                 0.0573                 0.0329
 IR Inten    --      5.8532                 1.6110                 5.2756

                      7                      8                      9
                      A                      A                      A
 Frequencies --    205.6797               236.0835               263.5765
 Red. masses --      5.3072                 3.8285                 2.7546
 Frc consts  --      0.1323                 0.1257                 0.1128
 IR Inten    --      5.7592                15.6115                 4.6986

                     10                     11                     12
                      A                      A                      A
 Frequencies --    311.1128               317.3345               364.1222
 Red. masses --      4.6730                 2.6079                 1.8800
 Frc consts  --      0.2665                 0.1547                 0.1469
 IR Inten    --      4.9251                 1.0374                37.9004

                     13                     14                     15
                      A                      A                      A
 Frequencies --    385.3531               395.7356               442.9843
 Red. masses --      3.0486                 4.3788                 3.0571
 Frc consts  --      0.2667                 0.4040                 0.3535
 IR Inten    --     14.9235                12.0748                15.8982

                     16                     17                     18
                      A                      A                      A
 Frequencies --    474.4539               551.3331               567.9267
 Red. masses --      2.1181                 3.7878                 5.5643
 Frc consts  --      0.2809                 0.6784                 1.0574
 IR Inten    --     15.5606                30.1613                 2.0221

                     19                     20                     21
                      A                      A                      A
 Frequencies --    646.3160               709.1756               837.8380
 Red. masses --      1.3097                 3.1369                 3.7592
 Frc consts  --      0.3223                 0.9295                 1.5548
 IR Inten    --     84.1981                39.6396                77.2098

                     22                     23                     24
                      A                      A                      A
 Frequencies --    897.1583               950.1113               964.3143
 Red. masses --      2.4236                 1.6808                 2.8217
 Frc consts  --      1.1493                 0.8940                 1.5460
 IR Inten    --     52.9069                 4.9481                11.4452

                     25                     26                     27
                      A                      A                      A
 Frequencies --    982.9155               990.2209              1042.0352
 Red. masses --      2.0691                 1.3880                 4.2266
 Frc consts  --      1.1778                 0.8019                 2.7040
 IR Inten    --     72.9790                 8.2160                23.1750

                     28                     29                     30
                      A                      A                      A
 Frequencies --   1088.7170              1141.1437              1146.5225
 Red. masses --      3.0148                 1.3577                 1.4589
 Frc consts  --      2.1055                 1.0417                 1.1299
 IR Inten    --     56.6569                 0.2194                 1.4421

                     31                     32                     33
                      A                      A                      A
 Frequencies --   1221.1014              1252.1126              1274.0282
 Red. masses --      2.7033                 1.3521                 2.0512
 Frc consts  --      2.3749                 1.2489                 1.9616
 IR Inten    --     14.6997                10.9105               313.2081

                     34                     35                     36
                      A                      A                      A
 Frequencies --   1295.7534              1322.1325              1335.1210
 Red. masses --      2.6353                 1.3071                 1.3099
 Frc consts  --      2.6069                 1.3462                 1.3757
 IR Inten    --     43.1696                 5.5838                 0.2063

                     37                     38                     39
                      A                      A                      A
 Frequencies --   1373.6710              1399.9410              1449.3910
 Red. masses --      1.4116                 1.3633                 1.1830
 Frc consts  --      1.5694                 1.5742                 1.4642
 IR Inten    --     42.2850                 5.2666                66.6577

                     40                     41                     42
                      A                      A                      A
 Frequencies --   1468.6949              1475.8842              1478.5978
 Red. masses --      1.0825                 2.0281                 1.0428
 Frc consts  --      1.3757                 2.6028                 1.3432
 IR Inten    --     10.3639                65.8323                 2.3456

                     43                     44                     45
                      A                      A                      A
 Frequencies --   1509.6474              1666.6742              1733.2375
 Red. masses --      1.1862                 1.0926                 6.3092
 Frc consts  --      1.5928                 1.7882                11.1670
 IR Inten    --      2.8904                11.0337               295.4696

                     46                     47                     48
                      A                      A                      A
 Frequencies --   1770.9159              2375.6653              2966.2597
 Red. masses --      6.6019                12.6288                 1.0483
 Frc consts  --     12.1987                41.9934                 5.4344
 IR Inten    --    627.0179                 2.0706                87.2642

                     49                     50                     51
                      A                      A                      A
 Frequencies --   2976.7763              3014.5024              3054.9654
 Red. masses --      1.0713                 1.0857                 1.0848
 Frc consts  --      5.5933                 5.8129                 5.9650
 IR Inten    --     38.2506                40.4850                51.3027

                     52                     53                     54
                      A                      A                      A
 Frequencies --   3072.1716              3110.6831              3113.1316
 Red. masses --      1.1014                 1.0868                 1.0867
 Frc consts  --      6.1245                 6.1960                 6.2049
 IR Inten    --     23.7496                 5.6754                10.1133

                     55                     56                     57
                      A                      A                      A
 Frequencies --   3380.4208              3556.7191              3608.3631
 Red. masses --      1.0551                 1.0854                 1.0754
 Frc consts  --      7.1034                 8.0901                 8.2500
 IR Inten    --      9.0000                 4.9480                39.4637

 - Thermochemistry -
 -------------------
 Temperature   298.150 Kelvin.  Pressure   1.00000 Atm.
 Atom     1 has atomic number  6 and mass  12.00000

 Molecular mass:   154.09669 amu.
 Principal axes and moments of inertia in atomic units:
                           1         2         3
     Eigenvalues --   275.951345835.894026037.63391
           X            0.99998   0.00612   0.00297
           Y           -0.00616   0.99990   0.01298
           Z           -0.00289  -0.01300   0.99991
 This molecule is an asymmetric top.
 Rotational symmetry number  1.
 Rotational temperatures (Kelvin)      0.31387     0.01484     0.01435
 Rotational constants (GHZ):           6.54007     0.30925     0.29892
 Zero-point vibrational energy     441329.6 (Joules/Mol)
                                  105.48031 (Kcal/Mol)
 Warning -- explicit consideration of  18 degrees of freedom as
           vibrations may cause significant error
 Vibrational temperatures:     52.11    87.40   117.10   147.47   199.79
          (Kelvin)            282.16   295.93   339.67   379.23   447.62
                              456.57   523.89   554.44   569.38   637.36
                              682.63   793.25   817.12   929.90  1020.35
                             1205.46  1290.81  1367.00  1387.43  1414.20
                             1424.71  1499.26  1566.42  1641.85  1649.59
                             1756.89  1801.51  1833.04  1864.30  1902.25
                             1920.94  1976.41  2014.20  2085.35  2113.12
                             2123.47  2127.37  2172.05  2397.97  2493.74
                             2547.95  3418.05  4267.79  4282.92  4337.20
                             4395.41  4420.17  4475.58  4479.10  4863.67
                             5117.33  5191.63

 Zero-point correction=                           0.168094 (Hartree/Particle)
 Thermal correction to Energy=                    0.180282
 Thermal correction to Enthalpy=                  0.181226
 Thermal correction to Gibbs Free Energy=         0.129113
 Sum of electronic and zero-point Energies=           -524.821457
 Sum of electronic and thermal Energies=              -524.809268
 Sum of electronic and thermal Enthalpies=            -524.808324
 Sum of electronic and thermal Free Energies=         -524.860437

                     E (Thermal)             CV                S
                      KCal/Mol        Cal/Mol-Kelvin    Cal/Mol-Kelvin
 Total                  113.129             42.955            109.682
 Electronic               0.000              0.000              0.000
 Translational            0.889              2.981             41.007
 Rotational               0.889              2.981             30.654
 Vibrational            111.351             36.993             38.021
 Vibration     1          0.594              1.982              5.456
 Vibration     2          0.597              1.973              4.433
 Vibration     3          0.600              1.962              3.857
 Vibration     4          0.605              1.947              3.406
 Vibration     5          0.614              1.914              2.820
 Vibration     6          0.636              1.845              2.169
 Vibration     7          0.640              1.832              2.082
 Vibration     8          0.655              1.786              1.832
 Vibration     9          0.670              1.740              1.638
 Vibration    10          0.700              1.653              1.356
 Vibration    11          0.704              1.640              1.324
 Vibration    12          0.738              1.546              1.104
 Vibration    13          0.754              1.501              1.018
 Vibration    14          0.762              1.479              0.978
 Vibration    15          0.803              1.376              0.817
 Vibration    16          0.831              1.307              0.725
 Vibration    17          0.907              1.137              0.541
 Vibration    18          0.924              1.101              0.508

 Optimization completed.
    -- Stationary point found.
 Normal termination of Gaussian 16 at Tue Jun  1 06:54:06 2021.
