 Gaussian 16, Revision A.03,
 Gaussian 16:  ES64L-G16RevA.03 25-Dec-2016

 -----------------------------
 # opt freq b3lyp/6-31g(2df,p)
 -----------------------------

 -------------------
 Title Card Required
 -------------------
 Symbolic Z-matrix:
 Charge =  0 Multiplicity = 1

 SCF Done:  E(RB3LYP) =  -360.170178912     A.U. after   14 cycles
 SCF Done:  E(RB3LYP) =  -360.173040865     A.U. after   12 cycles
 SCF Done:  E(RB3LYP) =  -360.173347374     A.U. after   11 cycles
 SCF Done:  E(RB3LYP) =  -360.173434361     A.U. after   12 cycles
 SCF Done:  E(RB3LYP) =  -360.173548657     A.U. after   12 cycles
 SCF Done:  E(RB3LYP) =  -360.173783982     A.U. after   12 cycles
 SCF Done:  E(RB3LYP) =  -360.174059938     A.U. after   13 cycles
 SCF Done:  E(RB3LYP) =  -360.173853330     A.U. after   11 cycles
 SCF Done:  E(RB3LYP) =  -360.174495719     A.U. after   11 cycles
 SCF Done:  E(RB3LYP) =  -360.175145027     A.U. after   12 cycles
 SCF Done:  E(RB3LYP) =  -360.177248119     A.U. after   12 cycles
 SCF Done:  E(RB3LYP) =  -360.177907720     A.U. after   12 cycles
 SCF Done:  E(RB3LYP) =  -360.178061275     A.U. after   12 cycles
 SCF Done:  E(RB3LYP) =  -360.178194857     A.U. after   11 cycles
 SCF Done:  E(RB3LYP) =  -360.178215908     A.U. after   10 cycles
 SCF Done:  E(RB3LYP) =  -360.178224856     A.U. after    9 cycles
 SCF Done:  E(RB3LYP) =  -360.178231229     A.U. after    9 cycles
 SCF Done:  E(RB3LYP) =  -360.178235425     A.U. after   10 cycles
 SCF Done:  E(RB3LYP) =  -360.178235629     A.U. after    7 cycles
 Optimization completed.
    -- Stationary point found.
 Normal termination of Gaussian 16 at Tue Jun  1 09:46:04 2021.

 ----------------------------------------------------------------------
 #N Geom=AllCheck Guess=TCheck SCRF=Check GenChk RB3LYP/6-31G(2df,p) Fr
 eq
 ----------------------------------------------------------------------

 Structure from the checkpoint file:  "CNdCpCtNpCNC.chk"
 -------------------
 Title Card Required
 -------------------
 Charge =  0 Multiplicity = 1

                         Standard orientation:
 ---------------------------------------------------------------------
 Center     Atomic      Atomic             Coordinates (Angstroms)
 Number     Number       Type             X           Y           Z
 ---------------------------------------------------------------------
      1          6           0       -2.765041   -0.838180    0.267234
      2          7           0       -1.388523   -1.139724   -0.066540
      3          6           0       -0.532088   -0.215413   -0.229893
      4          6           0       -0.835824    1.202618   -0.091032
      5          7           0       -1.103757    2.325166   -0.006166
      6          6           0        0.904519   -0.542331   -0.573526
      7          7           0        1.787705   -0.045718    0.470027
      8          6           0        3.202421   -0.113096    0.125818
      9          1           0       -3.407758   -1.266020   -0.510115
     10          1           0       -2.991372    0.229821    0.376079
     11          1           0       -3.014227   -1.358012    1.198806
     12          1           0        1.168923   -0.028342   -1.507580
     13          1           0        0.962230   -1.626269   -0.760567
     14          1           0        1.615496   -0.559079    1.327980
     15          1           0        3.403072    0.556000   -0.718072
     16          1           0        3.553717   -1.121636   -0.153896
     17          1           0        3.798020    0.233882    0.974508
 ---------------------------------------------------------------------

 SCF Done:  E(RB3LYP) =  -360.178235629     A.U. after    1 cycles

 The electronic state is 1-A.
 Alpha  occ. eigenvalues --  -14.35429 -14.34023 -14.33095 -10.26998 -10.22793
 Alpha  occ. eigenvalues --  -10.22619 -10.21828 -10.21092  -0.95697  -0.91328
 Alpha  occ. eigenvalues --   -0.90423  -0.76750  -0.69913  -0.65372  -0.63512
 Alpha  occ. eigenvalues --   -0.52841  -0.49050  -0.47111  -0.46674  -0.44312
 Alpha  occ. eigenvalues --   -0.42821  -0.40487  -0.38558  -0.38098  -0.36969
 Alpha  occ. eigenvalues --   -0.36494  -0.33736  -0.30270  -0.27769  -0.23827
 Alpha virt. eigenvalues --   -0.05881   0.02926   0.07370   0.10023   0.11295
 Alpha virt. eigenvalues --    0.11917   0.13411   0.14312   0.15771   0.16368
 Alpha virt. eigenvalues --    0.16815   0.16949   0.18164   0.20355   0.20696

 Mulliken charges:
               1
     1  C   -0.345123
     2  N   -0.224113
     3  C    0.202470
     4  C    0.264660
     5  N   -0.336309
     6  C   -0.219988
     7  N   -0.280502
     8  C   -0.311297
     9  H    0.146265
    10  H    0.139405
    11  H    0.144713
    12  H    0.125518
    13  H    0.110866
    14  H    0.226015
    15  H    0.130367
    16  H    0.100103
    17  H    0.126949
 Sum of Mulliken charges =  -0.00000

 Dipole moment (field-independent basis, Debye):
    X=              0.9606    Y=             -2.8611    Z=              0.0507  Tot=              3.0185
 Quadrupole moment (field-independent basis, Debye-Ang):
   XX=            -40.9078   YY=            -58.7505   ZZ=            -45.4590
   XY=              2.4389   XZ=             -0.3357   YZ=             -1.7477

  Exact polarizability:  92.233   5.055  77.759  -2.959  -0.132  53.578
 Approx polarizability: 111.609   9.664 136.666  -4.665  -0.144  81.077

                      1                      2                      3
                      A                      A                      A
 Frequencies --     49.4388                81.0157               130.4070
 Red. masses --      2.7967                 2.5530                 2.6817
 Frc consts  --      0.0040                 0.0099                 0.0269
 IR Inten    --      0.1102                 0.5135                 1.0517

                      4                      5                      6
                      A                      A                      A
 Frequencies --    141.2741               167.1004               238.3272
 Red. masses --      1.1036                 4.3763                 1.2643
 Frc consts  --      0.0130                 0.0720                 0.0423
 IR Inten    --      0.2022                 8.6111                 0.3339

                      7                      8                      9
                      A                      A                      A
 Frequencies --    282.9741               298.2477               330.6321
 Red. masses --      4.2662                 2.8065                 2.9992
 Frc consts  --      0.2013                 0.1471                 0.1932
 IR Inten    --     16.3259                 2.4213                 4.5254

                     10                     11                     12
                      A                      A                      A
 Frequencies --    377.7462               462.8787               647.3935
 Red. masses --      5.8241                 3.9246                 4.4303
 Frc consts  --      0.4896                 0.4954                 1.0940
 IR Inten    --      3.2694                 4.8229                 9.2729

                     13                     14                     15
                      A                      A                      A
 Frequencies --    696.4652               761.0992               778.4514
 Red. masses --      5.7083                 3.8975                 1.3878
 Frc consts  --      1.6314                 1.3302                 0.4955
 IR Inten    --      4.7886                 3.8279                74.3966

                     16                     17                     18
                      A                      A                      A
 Frequencies --    944.7767               985.5025              1058.0753
 Red. masses --      2.4330                 1.8095                 3.1110
 Frc consts  --      1.2796                 1.0355                 2.0521
 IR Inten    --     30.3969                 4.1537                13.2844

                     19                     20                     21
                      A                      A                      A
 Frequencies --   1115.9422              1128.1555              1150.4645
 Red. masses --      1.4466                 1.5905                 2.0609
 Frc consts  --      1.0614                 1.1927                 1.6071
 IR Inten    --      3.4412                 5.3532                19.9692

                     22                     23                     24
                      A                      A                      A
 Frequencies --   1168.8159              1181.7288              1229.1282
 Red. masses --      1.6904                 1.7938                 2.9485
 Frc consts  --      1.3606                 1.4759                 2.6245
 IR Inten    --     14.0410                15.7812                18.4051

                     25                     26                     27
                      A                      A                      A
 Frequencies --   1290.3601              1373.6399              1433.4706
 Red. masses --      1.3770                 1.4648                 1.1561
 Frc consts  --      1.3508                 1.6284                 1.3997
 IR Inten    --     18.7387                13.5009                 1.0658

                     28                     29                     30
                      A                      A                      A
 Frequencies --   1458.8970              1480.4778              1487.1638
 Red. masses --      1.1618                 1.0438                 1.1698
 Frc consts  --      1.4569                 1.3479                 1.5243
 IR Inten    --      3.5420                 5.3586                 4.1867

                     31                     32                     33
                      A                      A                      A
 Frequencies --   1487.7849              1493.7265              1497.8113
 Red. masses --      1.0596                 1.0677                 1.1034
 Frc consts  --      1.3819                 1.4036                 1.4585
 IR Inten    --     18.1102                12.6807                 4.2695

                     34                     35                     36
                      A                      A                      A
 Frequencies --   1518.3862              1718.5327              2333.5277
 Red. masses --      1.0590                 9.7665                12.7104
 Frc consts  --      1.4384                16.9943                40.7789
 IR Inten    --      9.5799                38.6944                 0.4433

                     37                     38                     39
                      A                      A                      A
 Frequencies --   2953.6813              2980.8373              3012.8828
 Red. masses --      1.0577                 1.0635                 1.0341
 Frc consts  --      5.4368                 5.5673                 5.5304
 IR Inten    --     86.5096                41.8342                25.9637

                     40                     41                     42
                      A                      A                      A
 Frequencies --   3040.6493              3062.3554              3089.9787
 Red. masses --      1.0963                 1.0763                 1.1008
 Frc consts  --      5.9719                 5.9471                 6.1928
 IR Inten    --     14.5892                29.6078                10.9660

                     43                     44                     45
                      A                      A                      A
 Frequencies --   3090.7048              3111.2737              3523.8358
 Red. masses --      1.1011                 1.1011                 1.0740
 Frc consts  --      6.1974                 6.2799                 7.8575
 IR Inten    --     11.9259                23.4540                 0.9189

 - Thermochemistry -
 -------------------
 Temperature   298.150 Kelvin.  Pressure   1.00000 Atm.
 Atom     1 has atomic number  6 and mass  12.00000

 Molecular mass:   111.07965 amu.
 Principal axes and moments of inertia in atomic units:
                           1         2         3
     Eigenvalues --   530.998601484.442281894.96009
           X            0.99988   0.01406  -0.00687
           Y           -0.01408   0.99990  -0.00339
           Z            0.00682   0.00349   0.99997
 This molecule is an asymmetric top.
 Rotational symmetry number  1.
 Warning -- assumption of classical behavior for rotation
           may cause significant error
 Rotational temperatures (Kelvin)      0.16312     0.05835     0.04571
 Rotational constants (GHZ):           3.39877     1.21577     0.95239
 Zero-point vibrational energy     369921.3 (Joules/Mol)
                                   88.41332 (Kcal/Mol)
 Warning -- explicit consideration of  11 degrees of freedom as
           vibrations may cause significant error
 Vibrational temperatures:     71.13   116.56   187.63   203.26   240.42
          (Kelvin)            342.90   407.14   429.11   475.71   543.49
                              665.98   931.45  1002.06  1095.05  1120.02
                             1359.32  1417.92  1522.33  1605.59  1623.16
                             1655.26  1681.67  1700.24  1768.44  1856.54
                             1976.36  2062.44  2099.03  2130.08  2139.70
                             2140.59  2149.14  2155.02  2184.62  2472.59
                             3357.43  4249.69  4288.76  4334.87  4374.82
                             4406.05  4445.79  4446.83  4476.43  5070.01

 Zero-point correction=                           0.140896 (Hartree/Particle)
 Thermal correction to Energy=                    0.150343
 Thermal correction to Enthalpy=                  0.151288
 Thermal correction to Gibbs Free Energy=         0.105943
 Sum of electronic and zero-point Energies=           -360.037340
 Sum of electronic and thermal Energies=              -360.027892
 Sum of electronic and thermal Enthalpies=            -360.026948
 Sum of electronic and thermal Free Energies=         -360.072292

                     E (Thermal)             CV                S
                      KCal/Mol        Cal/Mol-Kelvin    Cal/Mol-Kelvin
 Total                   94.342             31.914             95.435
 Electronic               0.000              0.000              0.000
 Translational            0.889              2.981             40.031
 Rotational               0.889              2.981             28.792
 Vibrational             92.564             25.952             26.612
 Vibration     1          0.595              1.978              4.840
 Vibration     2          0.600              1.962              3.866
 Vibration     3          0.612              1.923              2.940
 Vibration     4          0.615              1.912              2.787
 Vibration     5          0.624              1.883              2.468
 Vibration     6          0.656              1.782              1.815
 Vibration     7          0.682              1.705              1.516
 Vibration     8          0.691              1.677              1.427
 Vibration     9          0.713              1.614              1.257
 Vibration    10          0.748              1.518              1.048
 Vibration    11          0.821              1.332              0.758

 Optimization completed.
    -- Stationary point found.
 Normal termination of Gaussian 16 at Tue Jun  1 10:03:16 2021.
