 Gaussian 16, Revision A.03,
 Gaussian 16:  ES64L-G16RevA.03 25-Dec-2016

 -----------------------------
 # opt freq b3lyp/6-31g(2df,p)
 -----------------------------

 -------------------
 Title Card Required
 -------------------
 Symbolic Z-matrix:
 Charge =  0 Multiplicity = 1

 SCF Done:  E(RB3LYP) =  -378.570457541     A.U. after   14 cycles
 SCF Done:  E(RB3LYP) =  -378.584709043     A.U. after   12 cycles
 SCF Done:  E(RB3LYP) =  -378.594301346     A.U. after   12 cycles
 SCF Done:  E(RB3LYP) =  -378.602840164     A.U. after   12 cycles
 SCF Done:  E(RB3LYP) =  -378.611125561     A.U. after   13 cycles
 SCF Done:  E(RB3LYP) =  -378.615419634     A.U. after   14 cycles
 SCF Done:  E(RB3LYP) =  -378.619808850     A.U. after   12 cycles
 SCF Done:  E(RB3LYP) =  -378.621536772     A.U. after   12 cycles
 SCF Done:  E(RB3LYP) =  -378.623073720     A.U. after   11 cycles
 SCF Done:  E(RB3LYP) =  -378.624370700     A.U. after   11 cycles
 SCF Done:  E(RB3LYP) =  -378.626274400     A.U. after   12 cycles
 SCF Done:  E(RB3LYP) =  -378.626551806     A.U. after   10 cycles
 SCF Done:  E(RB3LYP) =  -378.626711592     A.U. after   11 cycles
 SCF Done:  E(RB3LYP) =  -378.626759401     A.U. after   10 cycles
 SCF Done:  E(RB3LYP) =  -378.626770130     A.U. after    8 cycles
 SCF Done:  E(RB3LYP) =  -378.626773828     A.U. after    8 cycles
 SCF Done:  E(RB3LYP) =  -378.626774123     A.U. after    7 cycles
 SCF Done:  E(RB3LYP) =  -378.626774296     A.U. after    7 cycles
 SCF Done:  E(RB3LYP) =  -378.626774359     A.U. after    7 cycles
 Optimization completed.
    -- Stationary point found.
 Normal termination of Gaussian 16 at Mon May 31 16:53:46 2021.

 ----------------------------------------------------------------------
 #N Geom=AllCheck Guess=TCheck SCRF=Check GenChk RB3LYP/6-31G(2df,p) Fr
 eq
 ----------------------------------------------------------------------

 Structure from the checkpoint file:  "CNdCNpCNpNC.chk"
 -------------------
 Title Card Required
 -------------------
 Charge =  0 Multiplicity = 1

                         Standard orientation:
 ---------------------------------------------------------------------
 Center     Atomic      Atomic             Coordinates (Angstroms)
 Number     Number       Type             X           Y           Z
 ---------------------------------------------------------------------
      1          6           0        3.108303   -0.419037   -0.293969
      2          7           0        1.813986    0.160951   -0.005855
      3          6           0        0.847342   -0.643524    0.194891
      4          7           0       -0.404801   -0.218832    0.559469
      5          6           0       -0.664743    1.202269    0.704338
      6          7           0       -0.747941    1.883956   -0.591215
      7          7           0       -1.441026   -1.156322    0.422994
      8          6           0       -2.295529   -0.967439   -0.756478
      9          1           0        3.493345   -0.028277   -1.244179
     10          1           0        3.096255   -1.519977   -0.356891
     11          1           0        3.833781   -0.134994    0.479175
     12          1           0        0.906240   -1.736157    0.114008
     13          1           0        0.130374    1.594504    1.353546
     14          1           0       -1.624038    1.313662    1.221732
     15          1           0        0.192590    1.896077   -0.980054
     16          1           0       -1.009453    2.854922   -0.438794
     17          1           0       -2.002185   -1.130645    1.268941
     18          1           0       -1.690756   -1.099772   -1.657450
     19          1           0       -2.776627    0.016370   -0.815913
     20          1           0       -3.063284   -1.747599   -0.734565
 ---------------------------------------------------------------------

 SCF Done:  E(RB3LYP) =  -378.626774359     A.U. after    1 cycles

 The electronic state is 1-A.
 Alpha  occ. eigenvalues --  -14.36190 -14.35174 -14.30272 -14.28931 -10.23365
 Alpha  occ. eigenvalues --  -10.23143 -10.19818 -10.19007  -1.00067  -0.89823
 Alpha  occ. eigenvalues --   -0.87453  -0.80561  -0.69327  -0.67724  -0.63849
 Alpha  occ. eigenvalues --   -0.54736  -0.52862  -0.48443  -0.47285  -0.45601
 Alpha  occ. eigenvalues --   -0.44326  -0.42597  -0.41260  -0.40755  -0.38881
 Alpha  occ. eigenvalues --   -0.38160  -0.36476  -0.32421  -0.25635  -0.24050
 Alpha  occ. eigenvalues --   -0.22995  -0.20993
 Alpha virt. eigenvalues --    0.03956   0.08386   0.10508   0.12174   0.12851
 Alpha virt. eigenvalues --    0.14007   0.15299   0.16242   0.16495   0.17200
 Alpha virt. eigenvalues --    0.17551   0.19141   0.19861   0.20776   0.21014

 Mulliken charges:
               1
     1  C   -0.309028
     2  N   -0.265078
     3  C    0.137439
     4  N   -0.043190
     5  C   -0.125150
     6  N   -0.509368
     7  N   -0.288618
     8  C   -0.292385
     9  H    0.115013
    10  H    0.092328
    11  H    0.116272
    12  H    0.091576
    13  H    0.116976
    14  H    0.095609
    15  H    0.245684
    16  H    0.222053
    17  H    0.228700
    18  H    0.132769
    19  H    0.124870
    20  H    0.113530
 Sum of Mulliken charges =  -0.00000

 Dipole moment (field-independent basis, Debye):
    X=             -1.3714    Y=              0.2644    Z=              0.7793  Tot=              1.5994
 Quadrupole moment (field-independent basis, Debye-Ang):
   XX=            -46.6531   YY=            -47.0557   ZZ=            -49.4029
   XY=             -0.9873   XZ=             -3.2773   YZ=              1.0373

  Exact polarizability: 100.449   1.552  73.083  -4.123   0.149  58.752
 Approx polarizability: 130.548   7.973 103.519  -9.484  -1.974  86.866

                      1                      2                      3
                      A                      A                      A
 Frequencies --     75.8241                94.6258               128.3160
 Red. masses --      3.0098                 3.1843                 2.5827
 Frc consts  --      0.0102                 0.0168                 0.0251
 IR Inten    --      2.1921                 0.9135                 3.8858

                      4                      5                      6
                      A                      A                      A
 Frequencies --    159.9603               182.1954               202.0683
 Red. masses --      1.1734                 1.6352                 1.8939
 Frc consts  --      0.0177                 0.0320                 0.0456
 IR Inten    --      2.7320                 7.1297                 6.7124

                      7                      8                      9
                      A                      A                      A
 Frequencies --    243.3531               281.8891               327.7818
 Red. masses --      1.9251                 1.1382                 2.5938
 Frc consts  --      0.0672                 0.0533                 0.1642
 IR Inten    --      7.4606                35.6611                13.0263

                     10                     11                     12
                      A                      A                      A
 Frequencies --    361.6146               390.0212               456.5844
 Red. masses --      2.4626                 3.1835                 3.0459
 Frc consts  --      0.1897                 0.2853                 0.3741
 IR Inten    --      3.1371                 0.7649                 2.4895

                     13                     14                     15
                      A                      A                      A
 Frequencies --    557.2133               604.3997               782.9327
 Red. masses --      4.8641                 3.0940                 1.7442
 Frc consts  --      0.8898                 0.6659                 0.6299
 IR Inten    --      9.0944                17.1195               114.6250

                     16                     17                     18
                      A                      A                      A
 Frequencies --    856.4363               916.9315               978.6962
 Red. masses --      1.5554                 1.6535                 1.9412
 Frc consts  --      0.6722                 0.8191                 1.0955
 IR Inten    --     11.2105                90.2390                10.3764

                     19                     20                     21
                      A                      A                      A
 Frequencies --   1006.8811              1036.7910              1057.0052
 Red. masses --      1.4457                 3.0196                 2.5954
 Frc consts  --      0.8635                 1.9124                 1.7085
 IR Inten    --      3.0748                32.6741                 4.5733

                     22                     23                     24
                      A                      A                      A
 Frequencies --   1071.9743              1141.1858              1148.4693
 Red. masses --      3.0129                 1.3563                 1.4760
 Frc consts  --      2.0399                 1.0407                 1.1470
 IR Inten    --     19.3007                 2.3339                 0.3836

                     25                     26                     27
                      A                      A                      A
 Frequencies --   1155.7873              1175.9637              1209.9344
 Red. masses --      1.4099                 1.9133                 1.4075
 Frc consts  --      1.1097                 1.5589                 1.2140
 IR Inten    --      6.5419                 7.7365                22.1723

                     28                     29                     30
                      A                      A                      A
 Frequencies --   1272.1505              1347.6397              1353.7461
 Red. masses --      3.0305                 1.5855                 1.2139
 Frc consts  --      2.8896                 1.6965                 1.3108
 IR Inten    --     47.8217                80.7622                 7.2396

                     31                     32                     33
                      A                      A                      A
 Frequencies --   1414.5326              1437.5829              1449.1200
 Red. masses --      1.8541                 1.2989                 1.1773
 Frc consts  --      2.1858                 1.5816                 1.4566
 IR Inten    --     31.3165                27.0939                31.9609

                     34                     35                     36
                      A                      A                      A
 Frequencies --   1454.3330              1479.4724              1481.0416
 Red. masses --      1.2083                 1.0750                 1.0458
 Frc consts  --      1.5058                 1.3863                 1.3516
 IR Inten    --     12.7354                 1.6579                 1.1881

                     37                     38                     39
                      A                      A                      A
 Frequencies --   1484.2301              1501.7254              1506.6290
 Red. masses --      1.0807                 1.0757                 1.0631
 Frc consts  --      1.4027                 1.4293                 1.4217
 IR Inten    --      5.0779                 2.4998                 9.7789

                     40                     41                     42
                      A                      A                      A
 Frequencies --   1545.4448              1642.9799              1737.9671
 Red. masses --      1.2739                 1.1027                 6.5531
 Frc consts  --      1.7927                 1.7537                11.6622
 IR Inten    --      7.3593                55.2639               337.0799

                     43                     44                     45
                      A                      A                      A
 Frequencies --   2962.3075              3002.1175              3020.2467
 Red. masses --      1.0464                 1.0630                 1.0358
 Frc consts  --      5.4099                 5.6447                 5.5671
 IR Inten    --     97.1198                52.6948                42.4751

                     46                     47                     48
                      A                      A                      A
 Frequencies --   3040.4624              3048.2215              3055.2002
 Red. masses --      1.0861                 1.0879                 1.1008
 Frc consts  --      5.9156                 5.9560                 6.0541
 IR Inten    --     64.4031                30.7417                34.4750

                     49                     50                     51
                      A                      A                      A
 Frequencies --   3064.8641              3088.6546              3118.5955
 Red. masses --      1.0999                 1.1000                 1.1024
 Frc consts  --      6.0872                 6.1827                 6.3169
 IR Inten    --     30.3608                32.1726                22.1346

                     52                     53                     54
                      A                      A                      A
 Frequencies --   3473.3340              3497.8643              3553.9525
 Red. masses --      1.0490                 1.0745                 1.0918
 Frc consts  --      7.4563                 7.7457                 8.1250
 IR Inten    --      5.9203                 1.4142                 3.0308

 - Thermochemistry -
 -------------------
 Temperature   298.150 Kelvin.  Pressure   1.00000 Atm.
 Atom     1 has atomic number  6 and mass  12.00000

 Molecular mass:   116.10620 amu.
 Principal axes and moments of inertia in atomic units:
                           1         2         3
     Eigenvalues --   608.239581363.887831700.37775
           X            0.99996  -0.00892  -0.00107
           Y            0.00894   0.99958   0.02769
           Z            0.00083  -0.02770   0.99962
 This molecule is an asymmetric top.
 Rotational symmetry number  1.
 Warning -- assumption of classical behavior for rotation
           may cause significant error
 Rotational temperatures (Kelvin)      0.14240     0.06351     0.05094
 Rotational constants (GHZ):           2.96716     1.32323     1.06138
 Zero-point vibrational energy     464385.9 (Joules/Mol)
                                  110.99088 (Kcal/Mol)
 Warning -- explicit consideration of  14 degrees of freedom as
           vibrations may cause significant error
 Vibrational temperatures:    109.09   136.15   184.62   230.15   262.14
          (Kelvin)            290.73   350.13   405.58   471.60   520.28
                              561.15   656.92   801.71   869.60  1126.47
                             1232.22  1319.26  1408.13  1448.68  1491.71
                             1520.79  1542.33  1641.91  1652.39  1662.92
                             1691.95  1740.83  1830.34  1938.95  1947.74
                             2035.20  2068.36  2084.96  2092.46  2128.63
                             2130.89  2135.48  2160.65  2167.70  2223.55
                             2363.88  2500.55  4262.10  4319.38  4345.46
                             4374.55  4385.71  4395.75  4409.66  4443.89
                             4486.96  4997.35  5032.65  5113.35

 Zero-point correction=                           0.176875 (Hartree/Particle)
 Thermal correction to Energy=                    0.186833
 Thermal correction to Enthalpy=                  0.187778
 Thermal correction to Gibbs Free Energy=         0.142058
 Sum of electronic and zero-point Energies=           -378.449899
 Sum of electronic and thermal Energies=              -378.439941
 Sum of electronic and thermal Enthalpies=            -378.438997
 Sum of electronic and thermal Free Energies=         -378.484716

                     E (Thermal)             CV                S
                      KCal/Mol        Cal/Mol-Kelvin    Cal/Mol-Kelvin
 Total                  117.240             34.941             96.225
 Electronic               0.000              0.000              0.000
 Translational            0.889              2.981             40.163
 Rotational               0.889              2.981             28.735
 Vibrational            115.462             28.980             27.326
 Vibration     1          0.599              1.965              3.996
 Vibration     2          0.603              1.953              3.562
 Vibration     3          0.611              1.925              2.971
 Vibration     4          0.622              1.891              2.550
 Vibration     5          0.630              1.864              2.306
 Vibration     6          0.639              1.837              2.114
 Vibration     7          0.659              1.774              1.778
 Vibration     8          0.681              1.707              1.522
 Vibration     9          0.711              1.620              1.271
 Vibration    10          0.736              1.551              1.115
 Vibration    11          0.758              1.492              1.000
 Vibration    12          0.815              1.346              0.776
 Vibration    13          0.913              1.124              0.529
 Vibration    14          0.963              1.022              0.442

 Optimization completed.
    -- Stationary point found.
 Normal termination of Gaussian 16 at Mon May 31 17:20:17 2021.
