 Gaussian 16, Revision A.03,
 Gaussian 16:  ES64L-G16RevA.03 25-Dec-2016

 -----------------------------
 # opt freq b3lyp/6-31g(2df,p)
 -----------------------------

 -------------------
 Title Card Required
 -------------------
 Symbolic Z-matrix:
 Charge =  0 Multiplicity = 1

 SCF Done:  E(RB3LYP) =  -378.594838043     A.U. after   13 cycles
 SCF Done:  E(RB3LYP) =  -378.602676831     A.U. after   12 cycles
 SCF Done:  E(RB3LYP) =  -378.604525026     A.U. after   12 cycles
 SCF Done:  E(RB3LYP) =  -378.605173571     A.U. after   13 cycles
 SCF Done:  E(RB3LYP) =  -378.605901164     A.U. after   13 cycles
 SCF Done:  E(RB3LYP) =  -378.607040444     A.U. after   15 cycles
 SCF Done:  E(RB3LYP) =  -378.608210947     A.U. after   11 cycles
 SCF Done:  E(RB3LYP) =  -378.610007395     A.U. after   12 cycles
 SCF Done:  E(RB3LYP) =  -378.610201017     A.U. after   11 cycles
 SCF Done:  E(RB3LYP) =  -378.610272475     A.U. after   11 cycles
 SCF Done:  E(RB3LYP) =  -378.610325243     A.U. after   11 cycles
 SCF Done:  E(RB3LYP) =  -378.610338693     A.U. after    9 cycles
 SCF Done:  E(RB3LYP) =  -378.610341419     A.U. after    8 cycles
 SCF Done:  E(RB3LYP) =  -378.610342090     A.U. after    7 cycles
 SCF Done:  E(RB3LYP) =  -378.610342224     A.U. after    7 cycles
 Optimization completed.
    -- Stationary point found.
 Normal termination of Gaussian 16 at Mon May 31 21:57:21 2021.

 ----------------------------------------------------------------------
 #N Geom=AllCheck Guess=TCheck SCRF=Check GenChk RB3LYP/6-31G(2df,p) Fr
 eq
 ----------------------------------------------------------------------

 Structure from the checkpoint file:  "CNdCCNpNpCN.chk"
 -------------------
 Title Card Required
 -------------------
 Charge =  0 Multiplicity = 1

                         Standard orientation:
 ---------------------------------------------------------------------
 Center     Atomic      Atomic             Coordinates (Angstroms)
 Number     Number       Type             X           Y           Z
 ---------------------------------------------------------------------
      1          6           0        3.723711    0.243459    0.288262
      2          7           0        2.520139   -0.175586   -0.401324
      3          6           0        1.464282   -0.317619    0.278782
      4          6           0        0.167247   -0.786730   -0.326837
      5          7           0       -0.953987    0.002767    0.174932
      6          7           0       -0.906773    1.314926   -0.487016
      7          6           0       -2.230716   -0.602656   -0.174154
      8          7           0       -3.299830    0.169877    0.444554
      9          1           0        4.500048   -0.518959    0.155790
     10          1           0        3.582646    0.420154    1.366937
     11          1           0        4.103292    1.161552   -0.174440
     12          1           0        1.422629   -0.122747    1.364992
     13          1           0        0.001274   -1.825125   -0.006399
     14          1           0        0.249131   -0.764294   -1.423503
     15          1           0       -0.211041    1.846942    0.035693
     16          1           0       -1.799317    1.732561   -0.216756
     17          1           0       -2.181095   -1.653004    0.150786
     18          1           0       -2.403996   -0.587876   -1.265501
     19          1           0       -3.328043   -0.005714    1.443670
     20          1           0       -4.199522   -0.086094    0.054391
 ---------------------------------------------------------------------

 SCF Done:  E(RB3LYP) =  -378.610342224     A.U. after    1 cycles

 The electronic state is 1-A.
 Alpha  occ. eigenvalues --  -14.33991 -14.32159 -14.31794 -14.31698 -10.23082
 Alpha  occ. eigenvalues --  -10.21522 -10.20215 -10.19901  -0.96622  -0.91131
 Alpha  occ. eigenvalues --   -0.87605  -0.79067  -0.72348  -0.66700  -0.59829
 Alpha  occ. eigenvalues --   -0.54940  -0.51201  -0.50301  -0.47448  -0.46006
 Alpha  occ. eigenvalues --   -0.43516  -0.42581  -0.42426  -0.38997  -0.38843
 Alpha  occ. eigenvalues --   -0.37674  -0.35615  -0.30817  -0.28403  -0.25089
 Alpha  occ. eigenvalues --   -0.24407  -0.19190
 Alpha virt. eigenvalues --    0.00498   0.08016   0.10879   0.11564   0.12799
 Alpha virt. eigenvalues --    0.13400   0.14625   0.14969   0.16946   0.17492
 Alpha virt. eigenvalues --    0.17795   0.18648   0.20056   0.20843   0.21477

 Mulliken charges:
               1
     1  C   -0.314341
     2  N   -0.135043
     3  C    0.023650
     4  C   -0.168276
     5  N   -0.108864
     6  N   -0.479529
     7  C   -0.078734
     8  N   -0.507010
     9  H    0.129510
    10  H    0.097288
    11  H    0.130115
    12  H    0.075398
    13  H    0.104728
    14  H    0.107637
    15  H    0.234601
    16  H    0.247169
    17  H    0.086421
    18  H    0.091498
    19  H    0.231286
    20  H    0.232495
 Sum of Mulliken charges =   0.00000

 Dipole moment (field-independent basis, Debye):
    X=             -1.4631    Y=             -0.8361    Z=              2.0953  Tot=              2.6889
 Quadrupole moment (field-independent basis, Debye-Ang):
   XX=            -40.7863   YY=            -47.9132   ZZ=            -52.0638
   XY=              4.2612   XZ=              1.7024   YZ=              1.0464

  Exact polarizability: 106.526   4.752  64.854  -1.558   1.547  62.093
 Approx polarizability: 127.102   5.839  95.576  -7.386   0.999  97.521

                      1                      2                      3
                      A                      A                      A
 Frequencies --     62.2426                64.4345               126.2600
 Red. masses --      3.0692                 2.9369                 1.9625
 Frc consts  --      0.0070                 0.0072                 0.0184
 IR Inten    --      0.3359                 2.2930                 1.7597

                      4                      5                      6
                      A                      A                      A
 Frequencies --    176.8927               211.3316               227.2247
 Red. masses --      2.2728                 1.2127                 1.3418
 Frc consts  --      0.0419                 0.0319                 0.0408
 IR Inten    --     24.5152                10.8491                 9.1472

                      7                      8                      9
                      A                      A                      A
 Frequencies --    276.3754               290.7686               311.9610
 Red. masses --      2.9767                 2.6232                 1.2148
 Frc consts  --      0.1340                 0.1307                 0.0697
 IR Inten    --      4.5465                 3.7844                58.2057

                     10                     11                     12
                      A                      A                      A
 Frequencies --    370.2755               376.2243               442.8301
 Red. masses --      2.9085                 3.7091                 2.2824
 Frc consts  --      0.2349                 0.3093                 0.2637
 IR Inten    --      6.0389                 3.4684                17.0431

                     13                     14                     15
                      A                      A                      A
 Frequencies --    552.1952               598.9602               817.1394
 Red. masses --      2.5888                 3.2274                 2.1002
 Frc consts  --      0.4651                 0.6822                 0.8262
 IR Inten    --      6.0673                23.5490                40.8356

                     16                     17                     18
                      A                      A                      A
 Frequencies --    849.0062               881.3385               963.1563
 Red. masses --      1.4707                 1.8953                 1.8656
 Frc consts  --      0.6246                 0.8674                 1.0197
 IR Inten    --     70.7710                35.9778                20.1813

                     19                     20                     21
                      A                      A                      A
 Frequencies --   1010.6733              1033.8567              1068.6847
 Red. masses --      1.8926                 3.4533                 2.2872
 Frc consts  --      1.1390                 2.1747                 1.5391
 IR Inten    --      4.6292                13.3441                 7.4576

                     22                     23                     24
                      A                      A                      A
 Frequencies --   1097.2834              1109.3827              1131.0685
 Red. masses --      2.3005                 2.6598                 1.7649
 Frc consts  --      1.6320                 1.9287                 1.3303
 IR Inten    --     10.5901                67.5644                18.2409

                     25                     26                     27
                      A                      A                      A
 Frequencies --   1143.4210              1170.1614              1197.0509
 Red. masses --      1.4327                 1.5582                 1.5820
 Frc consts  --      1.1036                 1.2571                 1.3356
 IR Inten    --      0.0962                 7.1173                37.3767

                     28                     29                     30
                      A                      A                      A
 Frequencies --   1227.3159              1273.2302              1323.1246
 Red. masses --      1.3389                 1.3392                 1.2327
 Frc consts  --      1.1883                 1.2791                 1.2715
 IR Inten    --     12.7697                 7.3333                27.5065

                     31                     32                     33
                      A                      A                      A
 Frequencies --   1356.1761              1382.5369              1424.2686
 Red. masses --      1.2344                 1.3296                 1.5766
 Frc consts  --      1.3376                 1.4973                 1.8844
 IR Inten    --      5.2195                10.9476                10.3338

                     34                     35                     36
                      A                      A                      A
 Frequencies --   1438.6918              1445.5544              1457.9507
 Red. masses --      1.1818                 1.3337                 1.1224
 Frc consts  --      1.4412                 1.6420                 1.4057
 IR Inten    --      7.1296                32.2618                 8.1973

                     37                     38                     39
                      A                      A                      A
 Frequencies --   1478.7082              1495.9667              1502.4261
 Red. masses --      1.0435                 1.0586                 1.0852
 Frc consts  --      1.3443                 1.3958                 1.4433
 IR Inten    --      2.7535                15.3888                 1.0770

                     40                     41                     42
                      A                      A                      A
 Frequencies --   1640.6202              1652.4155              1768.8770
 Red. masses --      1.0941                 1.0730                 8.4873
 Frc consts  --      1.7351                 1.7262                15.6465
 IR Inten    --     25.2064                43.7380                52.9997

                     43                     44                     45
                      A                      A                      A
 Frequencies --   2939.5235              2961.0573              2970.8258
 Red. masses --      1.0612                 1.0804                 1.0507
 Frc consts  --      5.4026                 5.5811                 5.4635
 IR Inten    --     65.6418                25.1310                92.4638

                     46                     47                     48
                      A                      A                      A
 Frequencies --   2988.6712              2995.6000              3040.8376
 Red. masses --      1.0697                 1.0841                 1.1032
 Frc consts  --      5.6294                 5.7319                 6.0100
 IR Inten    --     20.7865                69.9101                26.3892

                     49                     50                     51
                      A                      A                      A
 Frequencies --   3063.0491              3081.3401              3425.6974
 Red. masses --      1.0861                 1.1006                 1.0500
 Frc consts  --      6.0036                 6.1567                 7.2602
 IR Inten    --     33.5203                19.1622                15.4376

                     52                     53                     54
                      A                      A                      A
 Frequencies --   3503.3921              3509.0731              3598.9607
 Red. masses --      1.0908                 1.0494                 1.0932
 Frc consts  --      7.8878                 7.6135                 8.3423
 IR Inten    --      7.5573                 0.2156                 2.0183

 - Thermochemistry -
 -------------------
 Temperature   298.150 Kelvin.  Pressure   1.00000 Atm.
 Atom     1 has atomic number  6 and mass  12.00000

 Molecular mass:   116.10620 amu.
 Principal axes and moments of inertia in atomic units:
                           1         2         3
     Eigenvalues --   271.353602267.932812383.01887
           X            0.99992   0.00934   0.00801
           Y           -0.00968   0.99898   0.04416
           Z           -0.00759  -0.04423   0.99899
 This molecule is an asymmetric top.
 Rotational symmetry number  1.
 Rotational temperatures (Kelvin)      0.31919     0.03819     0.03635
 Rotational constants (GHZ):           6.65088     0.79576     0.75733
 Zero-point vibrational energy     463589.4 (Joules/Mol)
                                  110.80052 (Kcal/Mol)
 Warning -- explicit consideration of  14 degrees of freedom as
           vibrations may cause significant error
 Vibrational temperatures:     89.55    92.71   181.66   254.51   304.06
          (Kelvin)            326.93   397.64   418.35   448.84   532.74
                              541.30   637.13   794.49   861.77  1175.68
                             1221.53  1268.05  1385.77  1454.13  1487.49
                             1537.60  1578.75  1596.15  1627.36  1645.13
                             1683.60  1722.29  1765.83  1831.89  1903.68
                             1951.23  1989.16  2049.20  2069.96  2079.83
                             2097.67  2127.53  2152.36  2161.66  2360.49
                             2377.46  2545.02  4229.32  4260.30  4274.36
                             4300.03  4310.00  4375.09  4407.04  4433.36
                             4928.81  5040.60  5048.77  5178.10

 Zero-point correction=                           0.176572 (Hartree/Particle)
 Thermal correction to Energy=                    0.186509
 Thermal correction to Enthalpy=                  0.187453
 Thermal correction to Gibbs Free Energy=         0.141515
 Sum of electronic and zero-point Energies=           -378.433770
 Sum of electronic and thermal Energies=              -378.423833
 Sum of electronic and thermal Enthalpies=            -378.422889
 Sum of electronic and thermal Free Energies=         -378.468827

                     E (Thermal)             CV                S
                      KCal/Mol        Cal/Mol-Kelvin    Cal/Mol-Kelvin
 Total                  117.036             35.066             96.685
 Electronic               0.000              0.000              0.000
 Translational            0.889              2.981             40.163
 Rotational               0.889              2.981             28.774
 Vibrational            115.259             29.104             27.747
 Vibration     1          0.597              1.972              4.385
 Vibration     2          0.597              1.971              4.317
 Vibration     3          0.611              1.927              3.002
 Vibration     4          0.628              1.871              2.361
 Vibration     5          0.643              1.824              2.032
 Vibration     6          0.651              1.800              1.901
 Vibration     7          0.678              1.717              1.556
 Vibration     8          0.687              1.691              1.469
 Vibration     9          0.700              1.651              1.352
 Vibration    10          0.742              1.533              1.079
 Vibration    11          0.747              1.521              1.054
 Vibration    12          0.802              1.377              0.818
 Vibration    13          0.908              1.135              0.540
 Vibration    14          0.957              1.034              0.451

                           ! Non-Optimized Parameters !
 Normal termination of Gaussian 16 at Mon May 31 22:19:10 2021.
