 Gaussian 16, Revision A.03,
 Gaussian 16:  ES64L-G16RevA.03 25-Dec-2016

 -----------------------------
 # opt freq b3lyp/6-31g(2df,p)
 -----------------------------

 -------------------
 Title Card Required
 -------------------
 Symbolic Z-matrix:
 Charge =  0 Multiplicity = 1

 SCF Done:  E(RB3LYP) =  -338.141728180     A.U. after   14 cycles
 SCF Done:  E(RB3LYP) =  -338.148220483     A.U. after   12 cycles
 SCF Done:  E(RB3LYP) =  -338.148822741     A.U. after   11 cycles
 SCF Done:  E(RB3LYP) =  -338.148861654     A.U. after    9 cycles
 SCF Done:  E(RB3LYP) =  -338.148863427     A.U. after    7 cycles
 Optimization completed.
    -- Stationary point found.
 Normal termination of Gaussian 16 at Mon May 31 20:39:06 2021.

 ----------------------------------------------------------------------
 #N Geom=AllCheck Guess=TCheck SCRF=Check GenChk RB3LYP/6-31G(2df,p) Fr
 eq
 ----------------------------------------------------------------------

 Structure from the checkpoint file:  "CNdCNCpdNpN.chk"
 -------------------
 Title Card Required
 -------------------
 Charge =  0 Multiplicity = 1

                         Standard orientation:
 ---------------------------------------------------------------------
 Center     Atomic      Atomic             Coordinates (Angstroms)
 Number     Number       Type             X           Y           Z
 ---------------------------------------------------------------------
      1          6           0       -3.233475    0.156560   -0.000001
      2          7           0       -1.969954   -0.569822    0.000000
      3          6           0       -0.904919    0.117368   -0.000000
      4          7           0        0.329178   -0.492406    0.000002
      5          6           0        1.579854    0.139013    0.000001
      6          7           0        1.835807    1.391306    0.000000
      7          7           0        2.613215   -0.762928   -0.000003
      8          1           0       -4.059120   -0.559281   -0.000022
      9          1           0       -3.347058    0.793605   -0.887792
     10          1           0       -3.347076    0.793573    0.887811
     11          1           0       -0.864093    1.212513   -0.000003
     12          1           0        0.285016   -1.501117    0.000004
     13          1           0        0.999938    1.964926    0.000003
     14          1           0        2.481541   -1.755626    0.000002
     15          1           0        3.544370   -0.389297    0.000001
 ---------------------------------------------------------------------

 SCF Done:  E(RB3LYP) =  -338.148863427     A.U. after    1 cycles

 The electronic state is 1-A.
 Alpha  occ. eigenvalues --  -14.36777 -14.34303 -14.30746 -14.27501 -10.28608
 Alpha  occ. eigenvalues --  -10.25534 -10.20107  -0.99390  -0.92947  -0.87164
 Alpha  occ. eigenvalues --   -0.84169  -0.70393  -0.62893  -0.59650  -0.56559
 Alpha  occ. eigenvalues --   -0.50708  -0.48009  -0.45264  -0.44332  -0.43768
 Alpha  occ. eigenvalues --   -0.41244  -0.38928  -0.33593  -0.26811  -0.24833
 Alpha  occ. eigenvalues --   -0.24450  -0.22161
 Alpha virt. eigenvalues --    0.00453   0.06173   0.08612   0.09108   0.12060
 Alpha virt. eigenvalues --    0.12136   0.14258   0.17078   0.17827   0.18974
 Alpha virt. eigenvalues --    0.23140   0.24790   0.28923   0.32306   0.35269

 Mulliken charges:
               1
     1  C   -0.315670
     2  N   -0.255505
     3  C    0.123899
     4  N   -0.349543
     5  C    0.459789
     6  N   -0.553972
     7  N   -0.547761
     8  H    0.126538
     9  H    0.118011
    10  H    0.118012
    11  H    0.095616
    12  H    0.248709
    13  H    0.209866
    14  H    0.253008
    15  H    0.269005
 Sum of Mulliken charges =  -0.00000

 Dipole moment (field-independent basis, Debye):
    X=              0.0270    Y=             -1.6764    Z=              0.0000  Tot=              1.6766
 Quadrupole moment (field-independent basis, Debye-Ang):
   XX=            -39.6608   YY=            -40.2241   ZZ=            -44.2131
   XY=            -11.5293   XZ=              0.0000   YZ=             -0.0000

  Exact polarizability:  96.836   0.309  62.579  -0.000  -0.000  35.117
 Approx polarizability: 123.343   7.472 102.820  -0.000  -0.000  52.539

 ******    3 imaginary frequencies (negative Signs) ******

                      1                      2                      3
                      A                      A                      A
 Frequencies --   -469.7961              -214.3279               -70.0025
 Red. masses --      1.1974                 1.1552                 1.9050
 Frc consts  --      0.1557                 0.0313                 0.0055
 IR Inten    --    138.4868                 1.8264                 0.5877

                      4                      5                      6
                      A                      A                      A
 Frequencies --     85.4911               152.1254               271.2940
 Red. masses --      4.0128                 3.5328                 2.8246
 Frc consts  --      0.0173                 0.0482                 0.1225
 IR Inten    --      0.0910                 9.5647                29.6604

                      7                      8                      9
                      A                      A                      A
 Frequencies --    355.7545               399.2404               403.9275
 Red. masses --      3.4149                 1.1593                 4.7793
 Frc consts  --      0.2546                 0.1089                 0.4594
 IR Inten    --      5.3210                79.8836                 4.6288

                     10                     11                     12
                      A                      A                      A
 Frequencies --    559.6197               572.0273               614.5561
 Red. masses --      1.2746                 2.9286                 3.2719
 Frc consts  --      0.2352                 0.5646                 0.7281
 IR Inten    --     61.6963                10.1973                 5.3751

                     13                     14                     15
                      A                      A                      A
 Frequencies --    719.9322               725.9905               957.9369
 Red. masses --      4.5955                 1.2247                 3.1781
 Frc consts  --      1.4033                 0.3803                 1.7183
 IR Inten    --     22.2359                44.9393                13.5399

                     16                     17                     18
                      A                      A                      A
 Frequencies --    979.0725              1049.7516              1088.8342
 Red. masses --      1.4588                 3.0076                 1.8941
 Frc consts  --      0.8239                 1.9527                 1.3230
 IR Inten    --      2.4336                30.3603                55.8809

                     19                     20                     21
                      A                      A                      A
 Frequencies --   1121.3931              1133.2222              1138.6062
 Red. masses --      1.3454                 1.6714                 1.4037
 Frc consts  --      0.9968                 1.2646                 1.0722
 IR Inten    --      0.1899                66.5837                27.2015

                     22                     23                     24
                      A                      A                      A
 Frequencies --   1286.0337              1342.4509              1395.1560
 Red. masses --      2.3145                 1.5040                 1.7338
 Frc consts  --      2.2553                 1.5970                 1.9884
 IR Inten    --    152.4992               101.6504                82.5210

                     25                     26                     27
                      A                      A                      A
 Frequencies --   1438.9913              1487.2241              1508.0150
 Red. masses --      1.1645                 1.0661                 1.0439
 Frc consts  --      1.4207                 1.3893                 1.3987
 IR Inten    --     57.2755                 2.7689                 3.3621

                     28                     29                     30
                      A                      A                      A
 Frequencies --   1531.8951              1618.4208              1730.8557
 Red. masses --      2.6147                 1.2493                 5.8493
 Frc consts  --      3.6152                 1.9280                10.3247
 IR Inten    --    315.3820               143.5948               292.7316

                     31                     32                     33
                      A                      A                      A
 Frequencies --   1764.3550              2995.5524              3049.3812
 Red. masses --      5.5413                 1.0389                 1.1022
 Frc consts  --     10.1633                 5.4923                 6.0386
 IR Inten    --    366.7227                67.7403                37.4622

                     34                     35                     36
                      A                      A                      A
 Frequencies --   3054.8491              3104.1178              3560.9936
 Red. masses --      1.0866                 1.0959                 1.0752
 Frc consts  --      5.9742                 6.2214                 8.0331
 IR Inten    --     29.9567                31.5249                 4.1986

                     37                     38                     39
                      A                      A                      A
 Frequencies --   3608.5034              3650.0080              3783.5969
 Red. masses --      1.0753                 1.0452                 1.1052
 Frc consts  --      8.2498                 8.2041                 9.3218
 IR Inten    --     16.5439                70.2072                46.9588

 - Thermochemistry -
 -------------------
 Temperature   298.150 Kelvin.  Pressure   1.00000 Atm.
 Atom     1 has atomic number  6 and mass  12.00000

 Molecular mass:   100.07490 amu.
 Principal axes and moments of inertia in atomic units:
                           1         2         3
     Eigenvalues --   206.328781519.153941714.13589
           X            0.99975  -0.02246   0.00000
           Y            0.02246   0.99975  -0.00000
           Z           -0.00000   0.00000   1.00000
 This molecule is an asymmetric top.
 Rotational symmetry number  1.
 Rotational temperatures (Kelvin)      0.41979     0.05701     0.05053
 Rotational constants (GHZ):           8.74692     1.18799     1.05286
    3 imaginary frequencies ignored.
 Zero-point vibrational energy     324422.3 (Joules/Mol)
                                   77.53879 (Kcal/Mol)
 Warning -- explicit consideration of   9 degrees of freedom as
           vibrations may cause significant error
 Vibrational temperatures:    123.00   218.87   390.33   511.85   574.42
          (Kelvin)            581.16   805.17   823.02   884.21  1035.82
                             1044.54  1378.26  1408.67  1510.36  1566.59
                             1613.43  1630.45  1638.20  1850.32  1931.49
                             2007.32  2070.39  2139.78  2169.70  2204.06
                             2328.55  2490.32  2538.51  4309.93  4387.38
                             4395.25  4466.13  5123.48  5191.83  5251.55
                             5443.75

 Zero-point correction=                           0.123566 (Hartree/Particle)
 Thermal correction to Energy=                    0.130210
 Thermal correction to Enthalpy=                  0.131154
 Thermal correction to Gibbs Free Energy=         0.092569
 Sum of electronic and zero-point Energies=           -338.025297
 Sum of electronic and thermal Energies=              -338.018654
 Sum of electronic and thermal Enthalpies=            -338.017709
 Sum of electronic and thermal Free Energies=         -338.056295

                     E (Thermal)             CV                S
                      KCal/Mol        Cal/Mol-Kelvin    Cal/Mol-Kelvin
 Total                   81.708             23.846             81.209
 Electronic               0.000              0.000              0.000
 Translational            0.889              2.981             39.720
 Rotational               0.889              2.981             27.776
 Vibrational             79.930             17.885             13.713
 Vibration     1          0.601              1.959              3.761
 Vibration     2          0.619              1.900              2.645
 Vibration     3          0.675              1.726              1.588
 Vibration     4          0.731              1.563              1.141
 Vibration     5          0.765              1.472              0.965
 Vibration     6          0.769              1.462              0.948
 Vibration     7          0.915              1.119              0.525
 Vibration     8          0.928              1.092              0.500
 Vibration     9          0.974              1.001              0.425

 Optimization completed.
    -- Stationary point found.
 Normal termination of Gaussian 16 at Mon May 31 20:57:58 2021.
