 Gaussian 16, Revision A.03,
 Gaussian 16:  ES64L-G16RevA.03 25-Dec-2016

 -----------------------------
 # opt freq b3lyp/6-31g(2df,p)
 -----------------------------

 -------------------
 Title Card Required
 -------------------
 Symbolic Z-matrix:
 Charge =  0 Multiplicity = 1

 SCF Done:  E(RB3LYP) =  -416.722172171     A.U. after   14 cycles
 SCF Done:  E(RB3LYP) =  -416.726029840     A.U. after   13 cycles
 SCF Done:  E(RB3LYP) =  -416.731362232     A.U. after   12 cycles
 SCF Done:  E(RB3LYP) =  -416.731808466     A.U. after   12 cycles
 SCF Done:  E(RB3LYP) =  -416.731885460     A.U. after   10 cycles
 SCF Done:  E(RB3LYP) =  -416.731980869     A.U. after   11 cycles
 SCF Done:  E(RB3LYP) =  -416.732073662     A.U. after   11 cycles
 SCF Done:  E(RB3LYP) =  -416.732469774     A.U. after   12 cycles
 SCF Done:  E(RB3LYP) =  -416.732801605     A.U. after   12 cycles
 SCF Done:  E(RB3LYP) =  -416.733472713     A.U. after   12 cycles
 SCF Done:  E(RB3LYP) =  -416.739867608     A.U. after    7 cycles
 SCF Done:  E(RB3LYP) =  -416.739867743     A.U. after    7 cycles
 SCF Done:  E(RB3LYP) =  -416.739867873     A.U. after    7 cycles
 SCF Done:  E(RB3LYP) =  -416.739868074     A.U. after    8 cycles
 SCF Done:  E(RB3LYP) =  -416.739868264     A.U. after    8 cycles
 SCF Done:  E(RB3LYP) =  -416.739868460     A.U. after    8 cycles
 SCF Done:  E(RB3LYP) =  -416.739868582     A.U. after    7 cycles
 SCF Done:  E(RB3LYP) =  -416.739868634     A.U. after    7 cycles
 SCF Done:  E(RB3LYP) =  -416.739868643     A.U. after    6 cycles
 Optimization completed.
    -- Stationary point found.
 Normal termination of Gaussian 16 at Tue Jun  1 00:59:52 2021.

 ----------------------------------------------------------------------
 #N Geom=AllCheck Guess=TCheck SCRF=Check GenChk RB3LYP/6-31G(2df,p) Fr
 eq
 ----------------------------------------------------------------------

 Structure from the checkpoint file:  "CNdCpCNpNCCdN.chk"
 -------------------
 Title Card Required
 -------------------
 Charge =  0 Multiplicity = 1

                         Standard orientation:
 ---------------------------------------------------------------------
 Center     Atomic      Atomic             Coordinates (Angstroms)
 Number     Number       Type             X           Y           Z
 ---------------------------------------------------------------------
      1          6           0        2.964987   -1.258437   -0.012730
      2          7           0        1.532025   -1.293976    0.180213
      3          6           0        0.797710   -0.284167   -0.065965
      4          6           0        1.257866    1.062212   -0.609725
      5          7           0        1.971185    1.788791    0.450395
      6          7           0       -0.542340   -0.362991    0.346884
      7          6           0       -1.663741    0.034297   -0.494054
      8          6           0       -2.917992    0.183534    0.339472
      9          7           0       -4.079538   -0.248493    0.074404
     10          1           0        3.286140   -2.216105   -0.437311
     11          1           0        3.464760   -1.154774    0.958370
     12          1           0        3.337724   -0.450478   -0.655322
     13          1           0        0.408618    1.618738   -1.030527
     14          1           0        1.955134    0.892967   -1.436583
     15          1           0        1.339263    1.948607    1.229717
     16          1           0        2.246758    2.705245    0.109634
     17          1           0       -0.684981   -1.275142    0.768330
     18          1           0       -1.855065   -0.665416   -1.325035
     19          1           0       -1.446379    1.009546   -0.944299
     20          1           0       -2.774743    0.739556    1.272325
     21          1           0       -4.079534   -0.760699   -0.814562
 ---------------------------------------------------------------------

 SCF Done:  E(RB3LYP) =  -416.739868643     A.U. after    1 cycles

 The electronic state is 1-A.
 Alpha  occ. eigenvalues --  -14.34230 -14.32356 -14.31988 -14.29704 -10.24615
 Alpha  occ. eigenvalues --  -10.23488 -10.23363 -10.22084 -10.18962  -0.95677
 Alpha  occ. eigenvalues --   -0.90989  -0.88509  -0.86797  -0.73385  -0.69474
 Alpha  occ. eigenvalues --   -0.66273  -0.59693  -0.56069  -0.50245  -0.50188
 Alpha  occ. eigenvalues --   -0.47608  -0.47498  -0.44892  -0.43729  -0.41358
 Alpha  occ. eigenvalues --   -0.41246  -0.40353  -0.38412  -0.37719  -0.33104
 Alpha  occ. eigenvalues --   -0.31284  -0.26723  -0.25453  -0.23247  -0.22573
 Alpha virt. eigenvalues --   -0.00959   0.01519   0.07616   0.09542   0.10881
 Alpha virt. eigenvalues --    0.11763   0.12304   0.13766   0.14927   0.15731
 Alpha virt. eigenvalues --    0.16626   0.17932   0.19023   0.20446   0.21552

 Mulliken charges:
               1
     1  C   -0.308766
     2  N   -0.277168
     3  C    0.356510
     4  C   -0.241368
     5  N   -0.501311
     6  N   -0.325069
     7  C   -0.217056
     8  C    0.066197
     9  N   -0.381714
    10  H    0.114840
    11  H    0.128397
    12  H    0.105010
    13  H    0.085794
    14  H    0.123954
    15  H    0.235237
    16  H    0.230094
    17  H    0.236737
    18  H    0.102468
    19  H    0.132975
    20  H    0.115762
    21  H    0.218479
 Sum of Mulliken charges =  -0.00000

 Dipole moment (field-independent basis, Debye):
    X=              0.8752    Y=              1.9962    Z=             -1.8750  Tot=              2.8752
 Quadrupole moment (field-independent basis, Debye-Ang):
   XX=            -68.9037   YY=            -51.7551   ZZ=            -53.3204
   XY=              3.2332   XZ=              2.1581   YZ=              0.8705

  Exact polarizability: 117.938  -2.879  76.879   2.384   1.441  65.514
 Approx polarizability: 150.909  -5.019 114.528   4.103   0.230 100.547

                      1                      2                      3
                      A                      A                      A
 Frequencies --     26.3382                40.7761                51.6851
 Red. masses --      1.9118                 2.7841                 1.4803
 Frc consts  --      0.0008                 0.0027                 0.0023
 IR Inten    --      2.6414                 1.3592                 3.7907

                      4                      5                      6
                      A                      A                      A
 Frequencies --     70.2938                87.8417               196.2743
 Red. masses --      2.5220                 2.8245                 2.8989
 Frc consts  --      0.0073                 0.0128                 0.0658
 IR Inten    --      0.3156                 4.4020                 2.4581

                      7                      8                      9
                      A                      A                      A
 Frequencies --    228.7139               258.2155               275.8501
 Red. masses --      1.6923                 1.9431                 2.4549
 Frc consts  --      0.0522                 0.0763                 0.1101
 IR Inten    --     17.2442                10.2447                19.2226

                     10                     11                     12
                      A                      A                      A
 Frequencies --    317.2277               357.9114               436.0885
 Red. masses --      3.5665                 2.7980                 3.1228
 Frc consts  --      0.2115                 0.2112                 0.3499
 IR Inten    --      3.0974                 8.7195                 3.7948

                     13                     14                     15
                      A                      A                      A
 Frequencies --    488.6111               571.1964               710.3666
 Red. masses --      2.4361                 2.7013                 3.8424
 Frc consts  --      0.3427                 0.5193                 1.1424
 IR Inten    --     16.3269                 2.5331                 6.2513

                     16                     17                     18
                      A                      A                      A
 Frequencies --    722.0747               789.0939               808.3775
 Red. masses --      1.7052                 2.5762                 1.4965
 Frc consts  --      0.5238                 0.9451                 0.5762
 IR Inten    --     27.8430                32.5886                83.6450

                     19                     20                     21
                      A                      A                      A
 Frequencies --    856.1507               960.5756              1004.5100
 Red. masses --      1.3993                 2.1573                 2.5733
 Frc consts  --      0.6043                 1.1728                 1.5298
 IR Inten    --     74.2548                43.5370                21.4803

                     22                     23                     24
                      A                      A                      A
 Frequencies --   1035.9171              1043.7227              1076.6371
 Red. masses --      2.1388                 3.4475                 2.0981
 Frc consts  --      1.3523                 2.2127                 1.4329
 IR Inten    --      6.8101                45.3410                15.6535

                     25                     26                     27
                      A                      A                      A
 Frequencies --   1122.1900              1145.8408              1156.5722
 Red. masses --      1.4359                 1.2160                 1.7525
 Frc consts  --      1.0654                 0.9406                 1.3812
 IR Inten    --     11.2495                31.0692                28.1233

                     28                     29                     30
                      A                      A                      A
 Frequencies --   1159.8982              1168.4108              1221.1038
 Red. masses --      1.5540                 1.2948                 1.3110
 Frc consts  --      1.2318                 1.0415                 1.1517
 IR Inten    --     12.4147                 6.6207                10.0320

                     31                     32                     33
                      A                      A                      A
 Frequencies --   1275.5396              1282.0341              1343.6093
 Red. masses --      1.4268                 1.4388                 1.4412
 Frc consts  --      1.3677                 1.3933                 1.5329
 IR Inten    --    174.9168                19.1807               119.7975

                     34                     35                     36
                      A                      A                      A
 Frequencies --   1360.8974              1409.1518              1427.9699
 Red. masses --      1.6056                 1.2392                 1.5321
 Frc consts  --      1.7520                 1.4499                 1.8406
 IR Inten    --      4.1478                16.8371                38.9384

                     37                     38                     39
                      A                      A                      A
 Frequencies --   1446.2367              1470.5113              1480.0632
 Red. masses --      1.2082                 1.1999                 1.0690
 Frc consts  --      1.4889                 1.5287                 1.3797
 IR Inten    --      5.0138                 8.6491                 2.9911

                     40                     41                     42
                      A                      A                      A
 Frequencies --   1483.2870              1494.7773              1526.3235
 Red. masses --      1.1621                 1.0917                 1.0947
 Frc consts  --      1.5064                 1.4371                 1.5026
 IR Inten    --     16.6076                 1.5525                14.9641

                     43                     44                     45
                      A                      A                      A
 Frequencies --   1654.9766              1733.8426              1740.1431
 Red. masses --      1.0891                 8.6555                 7.0136
 Frc consts  --      1.7575                15.3307                12.5130
 IR Inten    --     17.7784                27.6157               269.5615

                     46                     47                     48
                      A                      A                      A
 Frequencies --   2961.0261              2992.6534              3005.7840
 Red. masses --      1.0709                 1.0708                 1.0348
 Frc consts  --      5.5320                 5.6503                 5.5084
 IR Inten    --     52.7843                97.1700                54.4560

                     49                     50                     51
                      A                      A                      A
 Frequencies --   3061.1707              3062.3167              3067.6331
 Red. masses --      1.0872                 1.0973                 1.0896
 Frc consts  --      6.0027                 6.0627                 6.0412
 IR Inten    --      1.7906                42.6796                30.3012

                     52                     53                     54
                      A                      A                      A
 Frequencies --   3075.0131              3082.0592              3398.7754
 Red. masses --      1.1007                 1.0887                 1.0735
 Frc consts  --      6.1320                 6.0932                 7.3065
 IR Inten    --     32.5523                29.7012                 4.1871

                     55                     56                     57
                      A                      A                      A
 Frequencies --   3487.1743              3535.8026              3568.6201
 Red. masses --      1.0489                 1.0734                 1.0929
 Frc consts  --      7.5149                 7.9065                 8.2006
 IR Inten    --      0.1872                 9.5292                 0.9732

 - Thermochemistry -
 -------------------
 Temperature   298.150 Kelvin.  Pressure   1.00000 Atm.
 Atom     1 has atomic number  6 and mass  12.00000

 Molecular mass:   128.10620 amu.
 Principal axes and moments of inertia in atomic units:
                           1         2         3
     Eigenvalues --   556.669232475.088012848.62602
           X            1.00000   0.00017   0.00209
           Y           -0.00017   0.99999   0.00346
           Z           -0.00209  -0.00346   0.99999
 This molecule is an asymmetric top.
 Rotational symmetry number  1.
 Warning -- assumption of classical behavior for rotation
           may cause significant error
 Rotational temperatures (Kelvin)      0.15559     0.03499     0.03041
 Rotational constants (GHZ):           3.24204     0.72916     0.63355
 Zero-point vibrational energy     477404.8 (Joules/Mol)
                                  114.10250 (Kcal/Mol)
 Warning -- explicit consideration of  14 degrees of freedom as
           vibrations may cause significant error
 Vibrational temperatures:     37.89    58.67    74.36   101.14   126.38
          (Kelvin)            282.39   329.07   371.51   396.89   456.42
                              514.95   627.43   703.00   821.82  1022.06
                             1038.90  1135.33  1163.07  1231.81  1382.05
                             1445.27  1490.45  1501.68  1549.04  1614.58
                             1648.61  1664.05  1668.83  1681.08  1756.90
                             1835.22  1844.56  1933.15  1958.03  2027.46
                             2054.53  2080.81  2115.74  2129.48  2134.12
                             2150.65  2196.04  2381.14  2494.61  2503.68
                             4260.26  4305.76  4324.65  4404.34  4405.99
                             4413.64  4424.26  4434.40  4890.08  5017.27
                             5087.23  5134.45

 Zero-point correction=                           0.181834 (Hartree/Particle)
 Thermal correction to Energy=                    0.193051
 Thermal correction to Enthalpy=                  0.193995
 Thermal correction to Gibbs Free Energy=         0.142680
 Sum of electronic and zero-point Energies=           -416.558035
 Sum of electronic and thermal Energies=              -416.546818
 Sum of electronic and thermal Enthalpies=            -416.545874
 Sum of electronic and thermal Free Energies=         -416.597189

                     E (Thermal)             CV                S
                      KCal/Mol        Cal/Mol-Kelvin    Cal/Mol-Kelvin
 Total                  121.141             37.873            108.002
 Electronic               0.000              0.000              0.000
 Translational            0.889              2.981             40.456
 Rotational               0.889              2.981             29.752
 Vibrational            119.364             31.911             37.794
 Vibration     1          0.593              1.985              6.088
 Vibration     2          0.594              1.981              5.221
 Vibration     3          0.596              1.977              4.752
 Vibration     4          0.598              1.968              4.145
 Vibration     5          0.601              1.958              3.708
 Vibration     6          0.636              1.845              2.168
 Vibration     7          0.651              1.797              1.889
 Vibration     8          0.667              1.749              1.674
 Vibration     9          0.677              1.718              1.559
 Vibration    10          0.704              1.641              1.324
 Vibration    11          0.733              1.559              1.131
 Vibration    12          0.797              1.392              0.839
 Vibration    13          0.845              1.275              0.687
 Vibration    14          0.927              1.094              0.502

 Optimization completed.
    -- Stationary point found.
 Normal termination of Gaussian 16 at Tue Jun  1 01:26:42 2021.
