 Gaussian 16, Revision A.03,
 Gaussian 16:  ES64L-G16RevA.03 25-Dec-2016

 -----------------------------
 # opt freq b3lyp/6-31g(2df,p)
 -----------------------------

 -------------------
 Title Card Required
 -------------------
 Symbolic Z-matrix:
 Charge =  0 Multiplicity = 1

 SCF Done:  E(RB3LYP) =  -416.728200192     A.U. after   14 cycles
 SCF Done:  E(RB3LYP) =  -416.733264776     A.U. after   12 cycles
 SCF Done:  E(RB3LYP) =  -416.733916330     A.U. after   12 cycles
 SCF Done:  E(RB3LYP) =  -416.734673351     A.U. after   12 cycles
 SCF Done:  E(RB3LYP) =  -416.734575193     A.U. after   15 cycles
 SCF Done:  E(RB3LYP) =  -416.735862705     A.U. after   12 cycles
 SCF Done:  E(RB3LYP) =  -416.736289402     A.U. after   12 cycles
 SCF Done:  E(RB3LYP) =  -416.736494371     A.U. after   11 cycles
 SCF Done:  E(RB3LYP) =  -416.736560405     A.U. after   10 cycles
 SCF Done:  E(RB3LYP) =  -416.736894469     A.U. after   12 cycles
 SCF Done:  E(RB3LYP) =  -416.736739732     A.U. after   12 cycles
 SCF Done:  E(RB3LYP) =  -416.737366221     A.U. after   10 cycles
 SCF Done:  E(RB3LYP) =  -416.738186816     A.U. after   11 cycles
 SCF Done:  E(RB3LYP) =  -416.739129036     A.U. after   12 cycles
 SCF Done:  E(RB3LYP) =  -416.739429951     A.U. after   11 cycles
 SCF Done:  E(RB3LYP) =  -416.739493443     A.U. after   10 cycles
 SCF Done:  E(RB3LYP) =  -416.739501319     A.U. after    9 cycles
 SCF Done:  E(RB3LYP) =  -416.739503340     A.U. after    8 cycles
 SCF Done:  E(RB3LYP) =  -416.739503550     A.U. after    7 cycles
 Optimization completed.
    -- Stationary point found.
 Normal termination of Gaussian 16 at Tue Jun  1 10:55:03 2021.

 ----------------------------------------------------------------------
 #N Geom=AllCheck Guess=TCheck SCRF=Check GenChk RB3LYP/6-31G(2df,p) Fr
 eq
 ----------------------------------------------------------------------

 Structure from the checkpoint file:  "CNdCNNdCCpCpN.chk"
 -------------------
 Title Card Required
 -------------------
 Charge =  0 Multiplicity = 1

                         Standard orientation:
 ---------------------------------------------------------------------
 Center     Atomic      Atomic             Coordinates (Angstroms)
 Number     Number       Type             X           Y           Z
 ---------------------------------------------------------------------
      1          6           0        4.420986    0.385136   -0.211605
      2          7           0        3.250966   -0.441237   -0.008666
      3          6           0        2.122250    0.134933   -0.011669
      4          7           0        0.956584   -0.567443    0.175575
      5          7           0       -0.234799    0.067833    0.157972
      6          6           0       -1.293318   -0.623858    0.330177
      7          6           0       -2.665182   -0.001774    0.327607
      8          6           0       -2.651840    1.496310    0.005221
      9          7           0       -3.516763   -0.824274   -0.550384
     10          1           0        5.099028    0.290466    0.645513
     11          1           0        4.192677    1.454729   -0.351133
     12          1           0        4.976355    0.037520   -1.091405
     13          1           0        1.941896    1.207335   -0.154862
     14          1           0        1.015099   -1.572304    0.314440
     15          1           0       -1.264494   -1.711140    0.472808
     16          1           0       -3.076468   -0.134590    1.340803
     17          1           0       -2.246001    1.672185   -0.995967
     18          1           0       -2.034022    2.054133    0.714178
     19          1           0       -3.671014    1.894199    0.042236
     20          1           0       -3.242245   -0.672603   -1.518462
     21          1           0       -4.480108   -0.508575   -0.478019
 ---------------------------------------------------------------------

 SCF Done:  E(RB3LYP) =  -416.739503550     A.U. after    1 cycles

 The electronic state is 1-A.
 Alpha  occ. eigenvalues --  -14.38289 -14.36881 -14.31349 -14.29822 -10.24351
 Alpha  occ. eigenvalues --  -10.22090 -10.21426 -10.19525 -10.17301  -1.02220
 Alpha  occ. eigenvalues --   -0.91415  -0.88926  -0.82624  -0.73402  -0.68700
 Alpha  occ. eigenvalues --   -0.64927  -0.61439  -0.57528  -0.51822  -0.50059
 Alpha  occ. eigenvalues --   -0.47726  -0.45058  -0.44248  -0.42938  -0.41641
 Alpha  occ. eigenvalues --   -0.40442  -0.39977  -0.38353  -0.36224  -0.35111
 Alpha  occ. eigenvalues --   -0.30729  -0.28680  -0.24719  -0.24523  -0.21014
 Alpha virt. eigenvalues --   -0.00493   0.04806   0.08810   0.09035   0.12347
 Alpha virt. eigenvalues --    0.12624   0.13597   0.14066   0.15576   0.15852
 Alpha virt. eigenvalues --    0.17625   0.18145   0.18332   0.19230   0.20545

 Mulliken charges:
               1
     1  C   -0.306529
     2  N   -0.244827
     3  C    0.149974
     4  N   -0.253635
     5  N   -0.110981
     6  C    0.026048
     7  C   -0.022809
     8  C   -0.381704
     9  N   -0.515127
    10  H    0.121605
    11  H    0.094773
    12  H    0.121479
    13  H    0.097916
    14  H    0.246652
    15  H    0.089014
    16  H    0.094187
    17  H    0.117571
    18  H    0.126280
    19  H    0.099254
    20  H    0.224337
    21  H    0.226522
 Sum of Mulliken charges =  -0.00000

 Dipole moment (field-independent basis, Debye):
    X=             -1.7179    Y=              0.8088    Z=             -0.2198  Tot=              1.9115
 Quadrupole moment (field-independent basis, Debye-Ang):
   XX=            -52.1523   YY=            -56.3380   ZZ=            -53.9448
   XY=              0.5207   XZ=              0.3616   YZ=             -0.7835

  Exact polarizability: 159.144   4.100  75.179  -3.758  -1.443  58.750
 Approx polarizability: 201.602   5.183 111.354  -7.464  -2.576  89.023

                      1                      2                      3
                      A                      A                      A
 Frequencies --     41.1798                78.3423                89.3197
 Red. masses --      3.9312                 2.1992                 3.6264
 Frc consts  --      0.0039                 0.0080                 0.0170
 IR Inten    --      0.1628                 0.3401                 0.1289

                      4                      5                      6
                      A                      A                      A
 Frequencies --    147.6576               190.5143               214.9637
 Red. masses --      2.2788                 1.4134                 3.2465
 Frc consts  --      0.0293                 0.0302                 0.0884
 IR Inten    --      1.8011                 1.1435                21.3571

                      7                      8                      9
                      A                      A                      A
 Frequencies --    246.9505               260.2275               298.5122
 Red. masses --      1.0800                 3.0109                 1.1733
 Frc consts  --      0.0388                 0.1201                 0.0616
 IR Inten    --      2.9186                15.9210                44.7621

                     10                     11                     12
                      A                      A                      A
 Frequencies --    315.3793               336.6060               396.8071
 Red. masses --      3.7282                 2.7223                 3.4642
 Frc consts  --      0.2185                 0.1817                 0.3214
 IR Inten    --     15.3454                 5.8990                 3.2838

                     13                     14                     15
                      A                      A                      A
 Frequencies --    423.4762               534.4931               555.1780
 Red. masses --      2.7092                 3.0641                 1.2150
 Frc consts  --      0.2863                 0.5158                 0.2206
 IR Inten    --      4.4726                 4.0812                76.7554

                     16                     17                     18
                      A                      A                      A
 Frequencies --    564.2582               663.6176               837.4816
 Red. masses --      3.7900                 3.2634                 3.0123
 Frc consts  --      0.7110                 0.8468                 1.2448
 IR Inten    --      2.3334                 5.1841                19.6356

                     19                     20                     21
                      A                      A                      A
 Frequencies --    895.2857               928.5791               971.1081
 Red. masses --      1.3926                 1.4166                 1.7151
 Frc consts  --      0.6577                 0.7196                 0.9530
 IR Inten    --    154.9623                11.2364                 4.7076

                     22                     23                     24
                      A                      A                      A
 Frequencies --   1001.3936              1014.6051              1045.8576
 Red. masses --      1.3882                 1.4001                 4.3642
 Frc consts  --      0.8202                 0.8492                 2.8126
 IR Inten    --      5.4266                 5.0551                36.9023

                     25                     26                     27
                      A                      A                      A
 Frequencies --   1112.2470              1142.0736              1145.7336
 Red. masses --      2.5526                 1.3534                 1.5897
 Frc consts  --      1.8605                 1.0401                 1.2295
 IR Inten    --     22.2981                 0.1141                12.0866

                     28                     29                     30
                      A                      A                      A
 Frequencies --   1164.8520              1196.7090              1217.2728
 Red. masses --      1.4827                 3.1568                 1.9115
 Frc consts  --      1.1853                 2.6637                 1.6688
 IR Inten    --      6.4177               122.8651                 9.4192

                     31                     32                     33
                      A                      A                      A
 Frequencies --   1278.0053              1335.7124              1354.7195
 Red. masses --      1.9530                 1.3261                 1.4496
 Frc consts  --      1.8794                 1.3940                 1.5675
 IR Inten    --    194.3566                32.6885                 6.8272

                     34                     35                     36
                      A                      A                      A
 Frequencies --   1362.9171              1401.7081              1406.8068
 Red. masses --      1.2968                 1.3471                 1.2623
 Frc consts  --      1.4193                 1.5595                 1.4719
 IR Inten    --     23.6693                24.0869                 9.9691

                     37                     38                     39
                      A                      A                      A
 Frequencies --   1449.7637              1480.0253              1484.8230
 Red. masses --      1.1951                 1.0434                 1.0549
 Frc consts  --      1.4799                 1.3466                 1.3703
 IR Inten    --     58.4087                 1.9605                 3.8409

                     40                     41                     42
                      A                      A                      A
 Frequencies --   1489.1298              1500.2266              1525.3248
 Red. masses --      1.1321                 1.1094                 1.7479
 Frc consts  --      1.4791                 1.4711                 2.3960
 IR Inten    --      6.1871                21.9390                16.5541

                     43                     44                     45
                      A                      A                      A
 Frequencies --   1656.8316              1711.4252              1767.8116
 Red. masses --      1.1023                 8.0535                 6.4834
 Frc consts  --      1.7828                13.8979                11.9378
 IR Inten    --     24.9771                82.1318               497.8127

                     46                     47                     48
                      A                      A                      A
 Frequencies --   2965.2074              2981.4280              3036.2702
 Red. masses --      1.0467                 1.0815                 1.0362
 Frc consts  --      5.4225                 5.6642                 5.6285
 IR Inten    --     96.0588                26.9826                28.4289

                     49                     50                     51
                      A                      A                      A
 Frequencies --   3045.1687              3047.2645              3055.5955
 Red. masses --      1.0854                 1.0855                 1.0885
 Frc consts  --      5.9301                 5.9386                 5.9879
 IR Inten    --     28.1226                70.0129                22.6986

                     52                     53                     54
                      A                      A                      A
 Frequencies --   3062.2852              3107.8303              3118.2251
 Red. masses --      1.1012                 1.1022                 1.1008
 Frc consts  --      6.0842                 6.2726                 6.3063
 IR Inten    --     29.7620                31.1717                22.9825

                     55                     56                     57
                      A                      A                      A
 Frequencies --   3473.3314              3511.1190              3555.5596
 Red. masses --      1.0492                 1.0749                 1.0919
 Frc consts  --      7.4579                 7.8072                 8.1327
 IR Inten    --      2.6335                 5.1962                 0.3452

 - Thermochemistry -
 -------------------
 Temperature   298.150 Kelvin.  Pressure   1.00000 Atm.
 Atom     1 has atomic number  6 and mass  12.00000

 Molecular mass:   128.10620 amu.
 Principal axes and moments of inertia in atomic units:
                           1         2         3
     Eigenvalues --   310.337353455.462203650.73788
           X            1.00000   0.00064  -0.00065
           Y           -0.00065   0.99986  -0.01676
           Z            0.00064   0.01676   0.99986
 This molecule is an asymmetric top.
 Rotational symmetry number  1.
 Rotational temperatures (Kelvin)      0.27910     0.02507     0.02373
 Rotational constants (GHZ):           5.81542     0.52229     0.49435
 Zero-point vibrational energy     473692.5 (Joules/Mol)
                                  113.21522 (Kcal/Mol)
 Warning -- explicit consideration of  16 degrees of freedom as
           vibrations may cause significant error
 Vibrational temperatures:     59.25   112.72   128.51   212.45   274.11
          (Kelvin)            309.28   355.31   374.41   429.49   453.76
                              484.30   570.92   609.29   769.02   798.78
                              811.84   954.80  1204.95  1288.12  1336.02
                             1397.21  1440.78  1459.79  1504.76  1600.28
                             1643.19  1648.46  1675.96  1721.80  1751.38
                             1838.76  1921.79  1949.14  1960.93  2016.75
                             2024.08  2085.89  2129.43  2136.33  2142.53
                             2158.49  2194.60  2383.81  2462.36  2543.49
                             4266.27  4289.61  4368.52  4381.32  4384.33
                             4396.32  4405.95  4471.47  4486.43  4997.35
                             5051.72  5115.66

 Zero-point correction=                           0.180420 (Hartree/Particle)
 Thermal correction to Energy=                    0.191381
 Thermal correction to Enthalpy=                  0.192325
 Thermal correction to Gibbs Free Energy=         0.143626
 Sum of electronic and zero-point Energies=           -416.559084
 Sum of electronic and thermal Energies=              -416.548123
 Sum of electronic and thermal Enthalpies=            -416.547179
 Sum of electronic and thermal Free Energies=         -416.595878

                     E (Thermal)             CV                S
                      KCal/Mol        Cal/Mol-Kelvin    Cal/Mol-Kelvin
 Total                  120.093             38.828            102.496
 Electronic               0.000              0.000              0.000
 Translational            0.889              2.981             40.456
 Rotational               0.889              2.981             29.750
 Vibrational            118.316             32.867             32.290
 Vibration     1          0.594              1.981              5.202
 Vibration     2          0.600              1.964              3.932
 Vibration     3          0.602              1.957              3.675
 Vibration     4          0.617              1.905              2.702
 Vibration     5          0.634              1.853              2.223
 Vibration     6          0.645              1.818              2.001
 Vibration     7          0.661              1.768              1.752
 Vibration     8          0.668              1.745              1.660
 Vibration     9          0.692              1.676              1.425
 Vibration    10          0.703              1.644              1.334
 Vibration    11          0.717              1.602              1.228
 Vibration    12          0.763              1.477              0.974
 Vibration    13          0.786              1.419              0.880
 Vibration    14          0.889              1.174              0.577
 Vibration    15          0.911              1.128              0.534
 Vibration    16          0.920              1.109              0.515

 Optimization completed.
    -- Stationary point found.
 Normal termination of Gaussian 16 at Tue Jun  1 11:21:17 2021.
