 Gaussian 16, Revision A.03,
 Gaussian 16:  ES64L-G16RevA.03 25-Dec-2016

 -----------------------------
 # opt freq b3lyp/6-31g(2df,p)
 -----------------------------

 -------------------
 Title Card Required
 -------------------
 Symbolic Z-matrix:
 Charge =  0 Multiplicity = 1

 SCF Done:  E(RB3LYP) =  -401.902369307     A.U. after   13 cycles
 SCF Done:  E(RB3LYP) =  -401.908391249     A.U. after   11 cycles
 SCF Done:  E(RB3LYP) =  -401.909215647     A.U. after   11 cycles
 SCF Done:  E(RB3LYP) =  -401.909996773     A.U. after   12 cycles
 SCF Done:  E(RB3LYP) =  -401.865250497     A.U. after   12 cycles
 SCF Done:  E(RB3LYP) =  -401.911749636     A.U. after   13 cycles
 SCF Done:  E(RB3LYP) =  -401.911929432     A.U. after   12 cycles
 SCF Done:  E(RB3LYP) =  -401.912701557     A.U. after   12 cycles
 SCF Done:  E(RB3LYP) =  -401.912863806     A.U. after   11 cycles
 SCF Done:  E(RB3LYP) =  -401.913225708     A.U. after   12 cycles
 SCF Done:  E(RB3LYP) =  -401.914603282     A.U. after    9 cycles
 SCF Done:  E(RB3LYP) =  -401.914562887     A.U. after   11 cycles
 SCF Done:  E(RB3LYP) =  -401.914636813     A.U. after   11 cycles
 SCF Done:  E(RB3LYP) =  -401.914642357     A.U. after    9 cycles
 SCF Done:  E(RB3LYP) =  -401.914642588     A.U. after    7 cycles
 SCF Done:  E(RB3LYP) =  -401.914642686     A.U. after    7 cycles
 SCF Done:  E(RB3LYP) =  -401.914642787     A.U. after    7 cycles
 SCF Done:  E(RB3LYP) =  -401.914642842     A.U. after    7 cycles
 SCF Done:  E(RB3LYP) =  -401.914642858     A.U. after    6 cycles
 Optimization completed.
    -- Stationary point found.
 Normal termination of Gaussian 16 at Tue Jun  1 04:03:46 2021.

 ----------------------------------------------------------------------
 #N Geom=AllCheck Guess=TCheck SCRF=Check GenChk RB3LYP/6-31G(2df,p) Fr
 eq
 ----------------------------------------------------------------------

 Structure from the checkpoint file:  "CNdCpCpCNCNC.chk"
 -------------------
 Title Card Required
 -------------------
 Charge =  0 Multiplicity = 1

                         Standard orientation:
 ---------------------------------------------------------------------
 Center     Atomic      Atomic             Coordinates (Angstroms)
 Number     Number       Type             X           Y           Z
 ---------------------------------------------------------------------
      1          6           0       -3.931621   -0.538989    0.481318
      2          7           0       -2.597188   -0.831326   -0.001471
      3          6           0       -1.754651    0.092871   -0.232228
      4          6           0       -1.930273    1.588375   -0.046351
      5          6           0       -0.400249   -0.332933   -0.771398
      6          7           0        0.666149    0.044681    0.156468
      7          6           0        1.997547   -0.233553   -0.359175
      8          7           0        3.010144    0.188640    0.594065
      9          6           0        4.363798   -0.066540    0.118752
     10          1           0       -4.656499   -0.935175   -0.239927
     11          1           0       -4.164814    0.520222    0.650693
     12          1           0       -4.097284   -1.085875    1.417054
     13          1           0       -2.381881    2.032879   -0.942103
     14          1           0       -0.951845    2.047933    0.105876
     15          1           0       -2.569027    1.837844    0.803259
     16          1           0       -0.211924    0.196788   -1.717052
     17          1           0       -0.443014   -1.409735   -0.994282
     18          1           0        0.529867   -0.469945    1.023209
     19          1           0        2.133072    0.353414   -1.278307
     20          1           0        2.118798   -1.303739   -0.653310
     21          1           0        2.868625   -0.307407    1.469522
     22          1           0        4.569262    0.565852   -0.752646
     23          1           0        4.554257   -1.113662   -0.180130
     24          1           0        5.081363    0.201250    0.899204
 ---------------------------------------------------------------------

 SCF Done:  E(RB3LYP) =  -401.914642858     A.U. after    1 cycles

 The electronic state is 1-A.
 Alpha  occ. eigenvalues --  -14.31468 -14.31204 -14.30870 -10.22654 -10.21988
 Alpha  occ. eigenvalues --  -10.20168 -10.19964 -10.19555 -10.17615  -0.92939
 Alpha  occ. eigenvalues --   -0.90744  -0.86786  -0.74710  -0.69740  -0.68022
 Alpha  occ. eigenvalues --   -0.64181  -0.62037  -0.51890  -0.48697  -0.48315
 Alpha  occ. eigenvalues --   -0.46394  -0.45974  -0.43639  -0.43006  -0.41517
 Alpha  occ. eigenvalues --   -0.40283  -0.38680  -0.38478  -0.38154  -0.36831
 Alpha  occ. eigenvalues --   -0.35996  -0.34489  -0.27468  -0.23410  -0.23034
 Alpha  occ. eigenvalues --   -0.21767
 Alpha virt. eigenvalues --    0.01024   0.08059   0.09818   0.10764   0.11745
 Alpha virt. eigenvalues --    0.14487   0.15023   0.15122   0.16018   0.16581
 Alpha virt. eigenvalues --    0.17168   0.17506   0.18038   0.19070   0.19641

 Mulliken charges:
               1
     1  C   -0.325925
     2  N   -0.228627
     3  C    0.299351
     4  C   -0.480451
     5  C   -0.201740
     6  N   -0.308504
     7  C   -0.051697
     8  N   -0.286188
     9  C   -0.311188
    10  H    0.129172
    11  H    0.101873
    12  H    0.126524
    13  H    0.132133
    14  H    0.151979
    15  H    0.129932
    16  H    0.104192
    17  H    0.097900
    18  H    0.212180
    19  H    0.105688
    20  H    0.056931
    21  H    0.210103
    22  H    0.123720
    23  H    0.093383
    24  H    0.119259
 Sum of Mulliken charges =  -0.00000

 Dipole moment (field-independent basis, Debye):
    X=              0.3038    Y=             -0.0559    Z=              0.2302  Tot=              0.3853
 Quadrupole moment (field-independent basis, Debye-Ang):
   XX=            -52.2843   YY=            -60.3878   ZZ=            -54.2070
   XY=             -6.0683   XZ=             -0.3492   YZ=             -2.9541

  Exact polarizability: 121.899   5.069  80.046  -5.031  -1.489  74.058
 Approx polarizability: 137.930  11.547 122.230  -6.883  -3.534 112.554

                      1                      2                      3
                      A                      A                      A
 Frequencies --     31.4189                44.8286                61.3540
 Red. masses --      2.4914                 2.0560                 1.4054
 Frc consts  --      0.0014                 0.0024                 0.0031
 IR Inten    --      1.4648                 4.5892                 0.0637

                      4                      5                      6
                      A                      A                      A
 Frequencies --     70.3085                84.8820               116.2205
 Red. masses --      2.1652                 1.0460                 2.4308
 Frc consts  --      0.0063                 0.0044                 0.0193
 IR Inten    --      0.2477                 0.5766                 0.7809

                      7                      8                      9
                      A                      A                      A
 Frequencies --    141.3723               211.7928               244.9539
 Red. masses --      2.4410                 2.9626                 1.1597
 Frc consts  --      0.0287                 0.0783                 0.0410
 IR Inten    --      4.0074                 3.1594                 1.3980

                     10                     11                     12
                      A                      A                      A
 Frequencies --    288.2140               316.8043               370.6431
 Red. masses --      3.7544                 2.5518                 3.2924
 Frc consts  --      0.1837                 0.1509                 0.2665
 IR Inten    --      2.9643                 2.8391                 4.3229

                     13                     14                     15
                      A                      A                      A
 Frequencies --    388.3283               463.9495               559.7206
 Red. masses --      2.3314                 3.0949                 3.2227
 Frc consts  --      0.2071                 0.3925                 0.5949
 IR Inten    --      0.3127                 1.5274                 2.7809

                     16                     17                     18
                      A                      A                      A
 Frequencies --    621.1798               768.4985               796.5994
 Red. masses --      2.8116                 1.4019                 2.5330
 Frc consts  --      0.6392                 0.4878                 0.9470
 IR Inten    --      1.4966                18.2617                 1.3278

                     19                     20                     21
                      A                      A                      A
 Frequencies --    807.3598               930.1105               972.1237
 Red. masses --      1.2091                 1.5200                 2.3752
 Frc consts  --      0.4644                 0.7748                 1.3225
 IR Inten    --    137.5843                 9.3864                13.6480

                     22                     23                     24
                      A                      A                      A
 Frequencies --    996.7090              1019.6816              1047.2026
 Red. masses --      1.9404                 1.9332                 1.5752
 Frc consts  --      1.1357                 1.1843                 1.0177
 IR Inten    --      6.7567                 2.1810                18.3333

                     25                     26                     27
                      A                      A                      A
 Frequencies --   1080.5778              1105.4700              1125.8789
 Red. masses --      2.3166                 1.8083                 1.5139
 Frc consts  --      1.5937                 1.3020                 1.1306
 IR Inten    --      1.4101                37.4967                 0.8619

                     28                     29                     30
                      A                      A                      A
 Frequencies --   1131.8859              1139.0626              1154.9531
 Red. masses --      2.7105                 1.4557                 2.8528
 Frc consts  --      2.0460                 1.1128                 2.2421
 IR Inten    --      3.7845                 3.4722                87.7621

                     31                     32                     33
                      A                      A                      A
 Frequencies --   1178.4065              1202.4891              1252.0097
 Red. masses --      1.9345                 1.5087                 2.7617
 Frc consts  --      1.5827                 1.2853                 2.5506
 IR Inten    --     42.3300                 1.2619                15.9972

                     34                     35                     36
                      A                      A                      A
 Frequencies --   1278.9259              1302.6467              1354.9440
 Red. masses --      1.4624                 1.2263                 1.4096
 Frc consts  --      1.4093                 1.2260                 1.5247
 IR Inten    --     20.4920                 4.2307                26.3468

                     37                     38                     39
                      A                      A                      A
 Frequencies --   1387.0919              1419.2213              1435.4288
 Red. masses --      1.2770                 1.3133                 1.1664
 Frc consts  --      1.4476                 1.5585                 1.4160
 IR Inten    --     30.7529                 9.0274                 7.8566

                     40                     41                     42
                      A                      A                      A
 Frequencies --   1456.7865              1469.0746              1479.2688
 Red. masses --      1.1656                 1.0568                 1.1962
 Frc consts  --      1.4575                 1.3438                 1.5423
 IR Inten    --     12.6277                 3.5413                64.3429

                     43                     44                     45
                      A                      A                      A
 Frequencies --   1482.8449              1489.6252              1490.5628
 Red. masses --      1.0485                 1.0720                 1.0582
 Frc consts  --      1.3583                 1.4015                 1.3853
 IR Inten    --      6.7101                10.7547                 7.9200

                     46                     47                     48
                      A                      A                      A
 Frequencies --   1498.1238              1504.7598              1515.3225
 Red. masses --      1.1305                 1.1387                 1.0595
 Frc consts  --      1.4949                 1.5191                 1.4333
 IR Inten    --      4.1142                 6.0621                 5.0431

                     49                     50                     51
                      A                      A                      A
 Frequencies --   1519.2221              1538.2936              1752.2700
 Red. masses --      1.0724                 1.1126                 8.9161
 Frc consts  --      1.4584                 1.5511                16.1297
 IR Inten    --      7.1054                 0.4979                73.5018

                     52                     53                     54
                      A                      A                      A
 Frequencies --   2803.3423              2937.8703              2981.8589
 Red. masses --      1.0731                 1.0601                 1.0571
 Frc consts  --      4.9685                 5.3908                 5.5377
 IR Inten    --    120.8622                95.9645                36.9601

                     55                     56                     57
                      A                      A                      A
 Frequencies --   3004.8211              3018.0148              3024.0142
 Red. masses --      1.0349                 1.0840                 1.1016
 Frc consts  --      5.5055                 5.8175                 5.9350
 IR Inten    --     53.9090                26.3682                31.6601

                     58                     59                     60
                      A                      A                      A
 Frequencies --   3034.3217              3054.3858              3069.1203
 Red. masses --      1.0451                 1.0739                 1.0993
 Frc consts  --      5.6695                 5.9028                 6.1010
 IR Inten    --     14.2865                39.9993                33.0397

                     61                     62                     63
                      A                      A                      A
 Frequencies --   3073.9844              3106.2295              3107.5596
 Red. masses --      1.1001                 1.1001                 1.0888
 Frc consts  --      6.1247                 6.2542                 6.1947
 IR Inten    --     23.1086                27.9051                13.6105

                     64                     65                     66
                      A                      A                      A
 Frequencies --   3141.1900              3485.8509              3498.4234
 Red. masses --      1.1020                 1.0732                 1.0734
 Frc consts  --      6.4066                 7.6832                 7.7402
 IR Inten    --      7.1140                 0.5975                 0.8346

 - Thermochemistry -
 -------------------
 Temperature   298.150 Kelvin.  Pressure   1.00000 Atm.
 Atom     1 has atomic number  6 and mass  12.00000

 Molecular mass:   129.12660 amu.
 Principal axes and moments of inertia in atomic units:
                           1         2         3
     Eigenvalues --   350.952433431.215503551.42786
           X            0.99993  -0.01034  -0.00598
           Y            0.01022   0.99976  -0.01946
           Z            0.00618   0.01939   0.99979
 This molecule is an asymmetric top.
 Rotational symmetry number  1.
 Rotational temperatures (Kelvin)      0.24680     0.02524     0.02439
 Rotational constants (GHZ):           5.14241     0.52598     0.50817
 Zero-point vibrational energy     564879.0 (Joules/Mol)
                                  135.00932 (Kcal/Mol)
 Warning -- explicit consideration of  15 degrees of freedom as
           vibrations may cause significant error
 Vibrational temperatures:     45.20    64.50    88.27   101.16   122.13
          (Kelvin)            167.22   203.40   304.72   352.43   414.68
                              455.81   533.27   558.72   667.52   805.31
                              893.74  1105.70  1146.13  1161.61  1338.22
                             1398.67  1434.04  1467.09  1506.69  1554.71
                             1590.52  1619.89  1628.53  1638.86  1661.72
                             1695.46  1730.11  1801.36  1840.09  1874.22
                             1949.46  1995.72  2041.94  2065.26  2095.99
                             2113.67  2128.34  2133.48  2143.24  2144.59
                             2155.47  2165.01  2180.21  2185.82  2213.26
                             2521.13  4033.38  4226.94  4290.23  4323.27
                             4342.25  4350.88  4365.71  4394.58  4415.78
                             4422.78  4469.17  4471.09  4519.47  5015.36
                             5033.45

 Zero-point correction=                           0.215151 (Hartree/Particle)
 Thermal correction to Energy=                    0.227281
 Thermal correction to Enthalpy=                  0.228225
 Thermal correction to Gibbs Free Energy=         0.175194
 Sum of electronic and zero-point Energies=           -401.699492
 Sum of electronic and thermal Energies=              -401.687362
 Sum of electronic and thermal Enthalpies=            -401.686418
 Sum of electronic and thermal Free Energies=         -401.739449

                     E (Thermal)             CV                S
                      KCal/Mol        Cal/Mol-Kelvin    Cal/Mol-Kelvin
 Total                  142.621             40.772            111.613
 Electronic               0.000              0.000              0.000
 Translational            0.889              2.981             40.480
 Rotational               0.889              2.981             29.837
 Vibrational            140.843             34.810             41.296
 Vibration     1          0.594              1.983              5.738
 Vibration     2          0.595              1.979              5.033
 Vibration     3          0.597              1.973              4.413
 Vibration     4          0.598              1.968              4.145
 Vibration     5          0.601              1.960              3.775
 Vibration     6          0.608              1.936              3.162
 Vibration     7          0.615              1.912              2.785
 Vibration     8          0.643              1.823              2.028
 Vibration     9          0.660              1.771              1.767
 Vibration    10          0.685              1.696              1.484
 Vibration    11          0.704              1.642              1.327
 Vibration    12          0.743              1.533              1.077
 Vibration    13          0.757              1.495              1.007
 Vibration    14          0.821              1.330              0.755
 Vibration    15          0.915              1.118              0.524

                           ! Non-Optimized Parameters !
 Normal termination of Gaussian 16 at Tue Jun  1 04:32:18 2021.
