 Gaussian 16, Revision A.03,
 Gaussian 16:  ES64L-G16RevA.03 25-Dec-2016

 -----------------------------
 # opt freq b3lyp/6-31g(2df,p)
 -----------------------------

 -------------------
 Title Card Required
 -------------------
 Symbolic Z-matrix:
 Charge =  0 Multiplicity = 1

 SCF Done:  E(RB3LYP) =  -394.608545869     A.U. after   14 cycles
 SCF Done:  E(RB3LYP) =  -394.626322936     A.U. after   12 cycles
 SCF Done:  E(RB3LYP) =  -394.634944959     A.U. after   12 cycles
 SCF Done:  E(RB3LYP) =  -394.599892276     A.U. after   14 cycles
 SCF Done:  E(RB3LYP) =  -394.651677857     A.U. after   12 cycles
 SCF Done:  E(RB3LYP) =  -394.581752627     A.U. after   13 cycles
 SCF Done:  E(RB3LYP) =  -394.666975428     A.U. after   12 cycles
 SCF Done:  E(RB3LYP) =  -394.672603141     A.U. after   12 cycles
 SCF Done:  E(RB3LYP) =  -394.673754659     A.U. after   12 cycles
 SCF Done:  E(RB3LYP) =  -394.675210770     A.U. after   11 cycles
 SCF Done:  E(RB3LYP) =  -394.676185068     A.U. after   11 cycles
 SCF Done:  E(RB3LYP) =  -394.676560467     A.U. after   13 cycles
 SCF Done:  E(RB3LYP) =  -394.677151000     A.U. after   10 cycles
 SCF Done:  E(RB3LYP) =  -394.677169194     A.U. after    9 cycles
 SCF Done:  E(RB3LYP) =  -394.677173170     A.U. after    8 cycles
 SCF Done:  E(RB3LYP) =  -394.677174203     A.U. after    8 cycles
 SCF Done:  E(RB3LYP) =  -394.677174539     A.U. after    7 cycles
 SCF Done:  E(RB3LYP) =  -394.677174780     A.U. after    7 cycles
 SCF Done:  E(RB3LYP) =  -394.677174812     A.U. after    5 cycles
 Optimization completed.
    -- Stationary point found.
 Normal termination of Gaussian 16 at Mon May 31 19:44:49 2021.

 ----------------------------------------------------------------------
 #N Geom=AllCheck Guess=TCheck SCRF=Check GenChk RB3LYP/6-31G(2df,p) Fr
 eq
 ----------------------------------------------------------------------

 Structure from the checkpoint file:  "CNdCNNCpNpN.chk"
 -------------------
 Title Card Required
 -------------------
 Charge =  0 Multiplicity = 1

                         Standard orientation:
 ---------------------------------------------------------------------
 Center     Atomic      Atomic             Coordinates (Angstroms)
 Number     Number       Type             X           Y           Z
 ---------------------------------------------------------------------
      1          6           0       -3.798216    0.156807    0.381694
      2          7           0       -2.633626   -0.108215   -0.435326
      3          6           0       -1.502552   -0.087650    0.134700
      4          7           0       -0.323484   -0.235326   -0.567734
      5          7           0        0.807008   -0.668470    0.139548
      6          6           0        2.031686    0.028943   -0.286462
      7          7           0        1.994751    1.451789   -0.001622
      8          7           0        3.108685   -0.680709    0.373887
      9          1           0       -4.508247   -0.675172    0.300346
     10          1           0       -4.319131    1.050935    0.016863
     11          1           0       -3.567935    0.309143    1.449463
     12          1           0       -1.328111    0.078519    1.206162
     13          1           0       -0.441567   -0.567601   -1.520793
     14          1           0        0.950412   -1.671439    0.031763
     15          1           0        2.185825   -0.064598   -1.374716
     16          1           0        1.741573    1.578525    0.977426
     17          1           0        1.244125    1.877522   -0.540854
     18          1           0        2.996295   -0.583324    1.380767
     19          1           0        3.987910   -0.234592    0.132699
 ---------------------------------------------------------------------

 SCF Done:  E(RB3LYP) =  -394.677174812     A.U. after    1 cycles

 The electronic state is 1-A.
 Alpha  occ. eigenvalues --  -14.36607 -14.35396 -14.31657 -14.30953 -14.29491
 Alpha  occ. eigenvalues --  -10.26331 -10.23758 -10.19371  -1.00333  -0.92914
 Alpha  occ. eigenvalues --   -0.89162  -0.84298  -0.78790  -0.67657  -0.62015
 Alpha  occ. eigenvalues --   -0.59549  -0.54217  -0.51984  -0.48467  -0.47153
 Alpha  occ. eigenvalues --   -0.45436  -0.44997  -0.42204  -0.41576  -0.39225
 Alpha  occ. eigenvalues --   -0.37775  -0.33843  -0.26690  -0.26111  -0.24935
 Alpha  occ. eigenvalues --   -0.24374  -0.22408
 Alpha virt. eigenvalues --    0.03457   0.07944   0.08754   0.11166   0.12326
 Alpha virt. eigenvalues --    0.12659   0.14152   0.14923   0.16979   0.17440
 Alpha virt. eigenvalues --    0.18200   0.18342   0.20708   0.22298   0.23913

 Mulliken charges:
               1
     1  C   -0.305516
     2  N   -0.236634
     3  C    0.130161
     4  N   -0.287030
     5  N   -0.271885
     6  C    0.096508
     7  N   -0.489206
     8  N   -0.511695
     9  H    0.119500
    10  H    0.119627
    11  H    0.092294
    12  H    0.084518
    13  H    0.238906
    14  H    0.232806
    15  H    0.075151
    16  H    0.215208
    17  H    0.232532
    18  H    0.226715
    19  H    0.238041
 Sum of Mulliken charges =   0.00000

 Dipole moment (field-independent basis, Debye):
    X=              0.9086    Y=             -0.1177    Z=              0.8700  Tot=              1.2635
 Quadrupole moment (field-independent basis, Debye-Ang):
   XX=            -51.5739   YY=            -50.3667   ZZ=            -46.2777
   XY=             -0.9816   XZ=             -1.6379   YZ=              1.6256

  Exact polarizability: 106.616  -4.161  56.814   0.370   0.974  61.888
 Approx polarizability: 129.903  -4.512  82.213   4.939   0.820  95.385

                      1                      2                      3
                      A                      A                      A
 Frequencies --     53.1216                91.7632               120.3070
 Red. masses --      4.3453                 3.1207                 1.8129
 Frc consts  --      0.0072                 0.0155                 0.0155
 IR Inten    --      0.8039                 1.2017                 1.5753

                      4                      5                      6
                      A                      A                      A
 Frequencies --    192.8105               217.6205               256.3801
 Red. masses --      1.5771                 3.1308                 2.0474
 Frc consts  --      0.0345                 0.0874                 0.0793
 IR Inten    --      4.3988                19.5292                 2.9271

                      7                      8                      9
                      A                      A                      A
 Frequencies --    288.2352               292.5339               320.3646
 Red. masses --      1.1215                 1.3969                 2.3036
 Frc consts  --      0.0549                 0.0704                 0.1393
 IR Inten    --     34.9436                37.8936                 0.7636

                     10                     11                     12
                      A                      A                      A
 Frequencies --    367.2296               476.8558               493.8824
 Red. masses --      3.7647                 2.7321                 2.9643
 Frc consts  --      0.2991                 0.3660                 0.4260
 IR Inten    --     13.7567                38.8155                40.9496

                     13                     14                     15
                      A                      A                      A
 Frequencies --    545.9759               617.8616               680.9135
 Red. masses --      2.3671                 2.4568                 1.6203
 Frc consts  --      0.4157                 0.5526                 0.4426
 IR Inten    --     17.3432                41.0477                62.0994

                     16                     17                     18
                      A                      A                      A
 Frequencies --    872.9894               888.0003               915.8966
 Red. masses --      1.9892                 2.3269                 1.7539
 Frc consts  --      0.8932                 1.0811                 0.8669
 IR Inten    --    113.0773                95.9332               255.3750

                     19                     20                     21
                      A                      A                      A
 Frequencies --    940.3068              1003.8784              1045.7600
 Red. masses --      1.4545                 1.4147                 2.3154
 Frc consts  --      0.7577                 0.8400                 1.4919
 IR Inten    --     60.4091                 1.5863                 9.1425

                     22                     23                     24
                      A                      A                      A
 Frequencies --   1061.5238              1129.4490              1143.0355
 Red. masses --      2.1022                 1.8441                 1.3595
 Frc consts  --      1.3956                 1.3860                 1.0465
 IR Inten    --     45.7160                 1.0703                 1.7065

                     25                     26                     27
                      A                      A                      A
 Frequencies --   1150.9931              1177.6000              1204.0699
 Red. masses --      1.8710                 2.2812                 1.8828
 Frc consts  --      1.4604                 1.8639                 1.6083
 IR Inten    --     64.0202                19.6921                44.2056

                     28                     29                     30
                      A                      A                      A
 Frequencies --   1283.9406              1320.3202              1349.7994
 Red. masses --      2.1083                 1.5873                 1.3433
 Frc consts  --      2.0477                 1.6303                 1.4420
 IR Inten    --     43.8744                52.3318                16.3750

                     31                     32                     33
                      A                      A                      A
 Frequencies --   1391.5041              1415.2821              1449.7125
 Red. masses --      1.3990                 1.2264                 1.2034
 Frc consts  --      1.5960                 1.4474                 1.4901
 IR Inten    --     34.9909                11.2969                33.5533

                     34                     35                     36
                      A                      A                      A
 Frequencies --   1463.3480              1480.5993              1500.0290
 Red. masses --      1.3739                 1.0439                 1.1262
 Frc consts  --      1.7334                 1.3483                 1.4930
 IR Inten    --      5.0890                 1.9588                14.2851

                     37                     38                     39
                      A                      A                      A
 Frequencies --   1518.0269              1649.0693              1661.1664
 Red. masses --      1.3435                 1.1006                 1.1014
 Frc consts  --      1.8241                 1.7634                 1.7907
 IR Inten    --      2.8519                32.3180                19.7144

                     40                     41                     42
                      A                      A                      A
 Frequencies --   1767.9139              2961.9383              2964.8645
 Red. masses --      6.4792                 1.0479                 1.0836
 Frc consts  --     11.9314                 5.4163                 5.6122
 IR Inten    --    357.1989                88.3777                59.0887

                     43                     44                     45
                      A                      A                      A
 Frequencies --   3038.0239              3045.8462              3062.0184
 Red. masses --      1.0865                 1.0858                 1.1007
 Frc consts  --      5.9083                 5.9352                 6.0806
 IR Inten    --     44.4691                48.4106                31.6329

                     46                     47                     48
                      A                      A                      A
 Frequencies --   3456.0588              3462.4145              3485.7799
 Red. masses --      1.0730                 1.0505                 1.0513
 Frc consts  --      7.5514                 7.4203                 7.5259
 IR Inten    --      2.7742                 0.3719                 0.5568

                     49                     50                     51
                      A                      A                      A
 Frequencies --   3501.6343              3545.3213              3576.7882
 Red. masses --      1.0746                 1.0900                 1.0893
 Frc consts  --      7.7630                 8.0720                 8.2111
 IR Inten    --      8.6444                 0.2814                 3.1980

 - Thermochemistry -
 -------------------
 Temperature   298.150 Kelvin.  Pressure   1.00000 Atm.
 Atom     1 has atomic number  6 and mass  12.00000

 Molecular mass:   117.10145 amu.
 Principal axes and moments of inertia in atomic units:
                           1         2         3
     Eigenvalues --   279.422572361.861012474.49238
           X            0.99996  -0.00279  -0.00789
           Y            0.00304   0.99952   0.03088
           Z            0.00780  -0.03090   0.99949
 This molecule is an asymmetric top.
 Rotational symmetry number  1.
 Rotational temperatures (Kelvin)      0.30997     0.03667     0.03500
 Rotational constants (GHZ):           6.45882     0.76412     0.72934
 Zero-point vibrational energy     436043.4 (Joules/Mol)
                                  104.21687 (Kcal/Mol)
 Warning -- explicit consideration of  14 degrees of freedom as
           vibrations may cause significant error
 Vibrational temperatures:     76.43   132.03   173.09   277.41   313.11
          (Kelvin)            368.87   414.71   420.89   460.93   528.36
                              686.09   710.59   785.54   888.97   979.68
                             1256.04  1277.63  1317.77  1352.89  1444.36
                             1504.62  1527.30  1625.03  1644.57  1656.02
                             1694.30  1732.39  1847.30  1899.65  1942.06
                             2002.06  2036.28  2085.81  2105.43  2130.25
                             2158.21  2184.10  2372.64  2390.05  2543.63
                             4261.57  4265.78  4371.04  4382.29  4405.56
                             4972.50  4981.64  5015.26  5038.07  5100.93
                             5146.20

 Zero-point correction=                           0.166080 (Hartree/Particle)
 Thermal correction to Energy=                    0.175795
 Thermal correction to Enthalpy=                  0.176739
 Thermal correction to Gibbs Free Energy=         0.131308
 Sum of electronic and zero-point Energies=           -394.511095
 Sum of electronic and thermal Energies=              -394.501380
 Sum of electronic and thermal Enthalpies=            -394.500436
 Sum of electronic and thermal Free Energies=         -394.545867

                     E (Thermal)             CV                S
                      KCal/Mol        Cal/Mol-Kelvin    Cal/Mol-Kelvin
 Total                  110.313             34.678             95.618
 Electronic               0.000              0.000              0.000
 Translational            0.889              2.981             40.189
 Rotational               0.889              2.981             28.881
 Vibrational            108.536             28.716             26.549
 Vibration     1          0.596              1.976              4.698
 Vibration     2          0.602              1.955              3.622
 Vibration     3          0.609              1.932              3.095
 Vibration     4          0.635              1.850              2.201
 Vibration     5          0.646              1.814              1.979
 Vibration     6          0.666              1.752              1.686
 Vibration     7          0.685              1.696              1.484
 Vibration     8          0.688              1.688              1.459
 Vibration     9          0.706              1.635              1.308
 Vibration    10          0.740              1.540              1.091
 Vibration    11          0.833              1.301              0.719
 Vibration    12          0.850              1.264              0.674
 Vibration    13          0.901              1.148              0.553
 Vibration    14          0.978              0.994              0.420

 Optimization completed.
    -- Stationary point found.
 Normal termination of Gaussian 16 at Mon May 31 20:03:19 2021.
