 Gaussian 16, Revision A.03,
 Gaussian 16:  ES64L-G16RevA.03 25-Dec-2016

 -----------------------------
 # opt freq b3lyp/6-31g(2df,p)
 -----------------------------

 -------------------
 Title Card Required
 -------------------
 Symbolic Z-matrix:
 Charge =  0 Multiplicity = 1

 SCF Done:  E(RB3LYP) =  -401.933400346     A.U. after   13 cycles
 SCF Done:  E(RB3LYP) =  -401.937346444     A.U. after   12 cycles
 SCF Done:  E(RB3LYP) =  -401.937745972     A.U. after   10 cycles
 SCF Done:  E(RB3LYP) =  -401.937794323     A.U. after    9 cycles
 SCF Done:  E(RB3LYP) =  -401.937807108     A.U. after    9 cycles
 SCF Done:  E(RB3LYP) =  -401.937824906     A.U. after    9 cycles
 SCF Done:  E(RB3LYP) =  -401.937832165     A.U. after    9 cycles
 SCF Done:  E(RB3LYP) =  -401.937862153     A.U. after   10 cycles
 SCF Done:  E(RB3LYP) =  -401.937762380     A.U. after   12 cycles
 SCF Done:  E(RB3LYP) =  -401.938019859     A.U. after   10 cycles
 SCF Done:  E(RB3LYP) =  -401.938860622     A.U. after    9 cycles
 SCF Done:  E(RB3LYP) =  -401.938864351     A.U. after    9 cycles
 SCF Done:  E(RB3LYP) =  -401.938864496     A.U. after    7 cycles
 SCF Done:  E(RB3LYP) =  -401.938864538     A.U. after    6 cycles
 SCF Done:  E(RB3LYP) =  -401.938864591     A.U. after    6 cycles
 SCF Done:  E(RB3LYP) =  -401.938864667     A.U. after    7 cycles
 SCF Done:  E(RB3LYP) =  -401.938864779     A.U. after    7 cycles
 SCF Done:  E(RB3LYP) =  -401.938864857     A.U. after    7 cycles
 SCF Done:  E(RB3LYP) =  -401.938864882     A.U. after    6 cycles
 Optimization completed.
    -- Stationary point found.
 Normal termination of Gaussian 16 at Tue Jun  1 14:07:16 2021.

 ----------------------------------------------------------------------
 #N Geom=AllCheck Guess=TCheck SCRF=Check GenChk RB3LYP/6-31G(2df,p) Fr
 eq
 ----------------------------------------------------------------------

 Structure from the checkpoint file:  "CNdCpCpNCCCN.chk"
 -------------------
 Title Card Required
 -------------------
 Charge =  0 Multiplicity = 1

                         Standard orientation:
 ---------------------------------------------------------------------
 Center     Atomic      Atomic             Coordinates (Angstroms)
 Number     Number       Type             X           Y           Z
 ---------------------------------------------------------------------
      1          6           0       -4.077099   -0.488765   -0.088396
      2          7           0       -2.679398   -0.875649   -0.082660
      3          6           0       -1.764704    0.004162    0.066277
      4          6           0       -1.952152    1.501712    0.194272
      5          7           0       -0.456879   -0.446522    0.171724
      6          6           0        0.704836    0.314592   -0.260318
      7          6           0        1.992447   -0.404810    0.142620
      8          6           0        3.252925    0.361215   -0.258234
      9          7           0        4.450085   -0.403687    0.102417
     10          1           0       -4.690585   -1.389650   -0.183783
     11          1           0       -4.338762    0.169030   -0.930870
     12          1           0       -4.393786    0.019331    0.835250
     13          1           0       -3.004591    1.756528    0.311892
     14          1           0       -1.577248    2.020005   -0.695506
     15          1           0       -1.401852    1.892671    1.055531
     16          1           0       -0.409327   -1.437931   -0.029020
     17          1           0        0.679842    1.303056    0.210781
     18          1           0        0.710080    0.486565   -1.351361
     19          1           0        2.028236   -1.399393   -0.318793
     20          1           0        1.981473   -0.563560    1.228803
     21          1           0        3.216735    1.372942    0.185104
     22          1           0        3.262904    0.500640   -1.346633
     23          1           0        4.520517   -0.469421    1.114344
     24          1           0        5.282195    0.091556   -0.203429
 ---------------------------------------------------------------------

 SCF Done:  E(RB3LYP) =  -401.938864882     A.U. after    1 cycles

 The electronic state is 1-A.
 Alpha  occ. eigenvalues --  -14.32574 -14.30937 -14.27890 -10.23740 -10.21580
 Alpha  occ. eigenvalues --  -10.20871 -10.18589 -10.18494 -10.18318  -0.94065
 Alpha  occ. eigenvalues --   -0.88089  -0.86118  -0.76371  -0.72572  -0.68196
 Alpha  occ. eigenvalues --   -0.63958  -0.59386  -0.54738  -0.49157  -0.48178
 Alpha  occ. eigenvalues --   -0.47184  -0.46334  -0.43855  -0.43334  -0.40098
 Alpha  occ. eigenvalues --   -0.39886  -0.39566  -0.39061  -0.37769  -0.35571
 Alpha  occ. eigenvalues --   -0.35176  -0.33948  -0.30515  -0.23830  -0.22532
 Alpha  occ. eigenvalues --   -0.20548
 Alpha virt. eigenvalues --    0.03501   0.07845   0.08678   0.10859   0.11557
 Alpha virt. eigenvalues --    0.12202   0.13699   0.14995   0.15812   0.17180
 Alpha virt. eigenvalues --    0.17644   0.18234   0.18577   0.19266   0.19755

 Mulliken charges:
               1
     1  C   -0.316505
     2  N   -0.288252
     3  C    0.366980
     4  C   -0.488286
     5  N   -0.319019
     6  C   -0.142953
     7  C   -0.170285
     8  C   -0.147038
     9  N   -0.508405
    10  H    0.115683
    11  H    0.104883
    12  H    0.105959
    13  H    0.133817
    14  H    0.137820
    15  H    0.137614
    16  H    0.231634
    17  H    0.108215
    18  H    0.093450
    19  H    0.110783
    20  H    0.101763
    21  H    0.078071
    22  H    0.104488
    23  H    0.223521
    24  H    0.226060
 Sum of Mulliken charges =  -0.00000

 Dipole moment (field-independent basis, Debye):
    X=              1.7171    Y=              2.7304    Z=              0.2769  Tot=              3.2373
 Quadrupole moment (field-independent basis, Debye-Ang):
   XX=            -54.1897   YY=            -58.7725   ZZ=            -56.4276
   XY=              0.3384   XZ=              2.1958   YZ=             -0.3593

  Exact polarizability: 128.245   4.773  80.156   0.809  -0.483  68.254
 Approx polarizability: 148.663   9.939 120.707   2.273   0.170 104.930

                      1                      2                      3
                      A                      A                      A
 Frequencies --     38.1547                46.1654                53.5845
 Red. masses --      2.2479                 1.2187                 2.1200
 Frc consts  --      0.0019                 0.0015                 0.0036
 IR Inten    --      0.1775                 0.0710                 2.4702

                      4                      5                      6
                      A                      A                      A
 Frequencies --     84.8567               117.9577               123.0707
 Red. masses --      3.1422                 1.4903                 1.9477
 Frc consts  --      0.0133                 0.0122                 0.0174
 IR Inten    --      0.3124                 0.8767                 2.0155

                      7                      8                      9
                      A                      A                      A
 Frequencies --    161.3099               216.8652               254.4105
 Red. masses --      1.5900                 3.0505                 1.8219
 Frc consts  --      0.0244                 0.0845                 0.0695
 IR Inten    --      6.2352                 0.9948                27.4541

                     10                     11                     12
                      A                      A                      A
 Frequencies --    273.2076               289.4337               336.7804
 Red. masses --      1.7994                 3.4983                 2.9694
 Frc consts  --      0.0791                 0.1727                 0.1984
 IR Inten    --     17.5560                 1.3146                 1.2536

                     13                     14                     15
                      A                      A                      A
 Frequencies --    433.6854               495.6555               562.6864
 Red. masses --      2.9469                 2.3502                 3.2735
 Frc consts  --      0.3266                 0.3402                 0.6107
 IR Inten    --      2.6671                22.2544                 3.3509

                     16                     17                     18
                      A                      A                      A
 Frequencies --    601.6073               707.0003               767.9093
 Red. masses --      3.0724                 1.3616                 1.0870
 Frc consts  --      0.6552                 0.4010                 0.3777
 IR Inten    --     13.3650                94.5118                 2.3474

                     19                     20                     21
                      A                      A                      A
 Frequencies --    807.2357               846.5553               902.9349
 Red. masses --      3.5470                 1.2104                 1.2833
 Frc consts  --      1.3618                 0.5111                 0.6164
 IR Inten    --      2.6232                83.2592                60.1168

                     22                     23                     24
                      A                      A                      A
 Frequencies --    977.6407              1007.7068              1037.0796
 Red. masses --      2.3972                 1.9109                 2.7548
 Frc consts  --      1.3500                 1.1433                 1.7457
 IR Inten    --      4.5889                 3.3906                14.7884

                     25                     26                     27
                      A                      A                      A
 Frequencies --   1047.2765              1073.7843              1085.3688
 Red. masses --      1.7734                 2.5558                 2.2098
 Frc consts  --      1.1460                 1.7363                 1.5337
 IR Inten    --      4.5271                 4.8378                 7.5076

                     28                     29                     30
                      A                      A                      A
 Frequencies --   1110.1529              1120.0754              1154.1277
 Red. masses --      1.3987                 1.7990                 1.5882
 Frc consts  --      1.0156                 1.3298                 1.2464
 IR Inten    --      0.2841                12.2448                51.2679

                     31                     32                     33
                      A                      A                      A
 Frequencies --   1170.7774              1197.0226              1266.0788
 Red. masses --      1.7206                 1.7048                 1.4696
 Frc consts  --      1.3896                 1.4392                 1.3880
 IR Inten    --     14.2837                16.6607                 3.3125

                     34                     35                     36
                      A                      A                      A
 Frequencies --   1307.4160              1316.8024              1339.6565
 Red. masses --      1.2581                 1.0917                 1.2324
 Frc consts  --      1.2671                 1.1154                 1.3032
 IR Inten    --     38.3442                 4.6285                 4.8296

                     37                     38                     39
                      A                      A                      A
 Frequencies --   1359.5741              1399.8410              1408.0575
 Red. masses --      1.8675                 1.3275                 1.7360
 Frc consts  --      2.0339                 1.5327                 2.0278
 IR Inten    --    113.8989                22.3080                76.2383

                     40                     41                     42
                      A                      A                      A
 Frequencies --   1434.5036              1442.9219              1472.4759
 Red. masses --      1.5039                 1.2165                 1.2709
 Frc consts  --      1.8234                 1.4922                 1.6235
 IR Inten    --     23.6390                33.4660                 6.8453

                     43                     44                     45
                      A                      A                      A
 Frequencies --   1477.1711              1486.8559              1493.5151
 Red. masses --      1.1409                 1.1677                 1.0777
 Frc consts  --      1.4668                 1.5209                 1.4163
 IR Inten    --     28.1995                23.0560                 1.5270

                     46                     47                     48
                      A                      A                      A
 Frequencies --   1501.0980              1512.5004              1514.9202
 Red. masses --      1.0784                 1.0699                 1.0608
 Frc consts  --      1.4317                 1.4420                 1.4344
 IR Inten    --      0.5404                 6.8746                 2.0355

                     49                     50                     51
                      A                      A                      A
 Frequencies --   1526.3855              1660.4009              1730.2601
 Red. masses --      1.0894                 1.0887                 6.4922
 Frc consts  --      1.4954                 1.7685                11.4515
 IR Inten    --      3.3969                21.3726               367.5266

                     52                     53                     54
                      A                      A                      A
 Frequencies --   2931.4829              2940.2146              2972.1948
 Red. masses --      1.0723                 1.0737                 1.0409
 Frc consts  --      5.4291                 5.4686                 5.4175
 IR Inten    --     69.9933                67.8783                85.9452

                     55                     56                     57
                      A                      A                      A
 Frequencies --   3018.8288              3022.7391              3037.7165
 Red. masses --      1.1011                 1.0613                 1.0842
 Frc consts  --      5.9121                 5.7135                 5.8945
 IR Inten    --     48.7957                17.0195                26.4615

                     58                     59                     60
                      A                      A                      A
 Frequencies --   3041.7825              3054.7322              3075.5300
 Red. masses --      1.0438                 1.0860                 1.1004
 Frc consts  --      5.6900                 5.9706                 6.1326
 IR Inten    --      5.6851                15.4327                62.7989

                     61                     62                     63
                      A                      A                      A
 Frequencies --   3082.7552              3098.9673              3155.7940
 Red. masses --      1.0931                 1.0979                 1.0971
 Frc consts  --      6.1203                 6.2123                 6.4375
 IR Inten    --     45.5651                 9.9603                13.4597

                     64                     65                     66
                      A                      A                      A
 Frequencies --   3485.9809              3563.9837              3566.2743
 Red. masses --      1.0496                 1.0918                 1.0740
 Frc consts  --      7.5151                 8.1706                 8.0479
 IR Inten    --      0.8165                 0.1231                 8.9689

 - Thermochemistry -
 -------------------
 Temperature   298.150 Kelvin.  Pressure   1.00000 Atm.
 Atom     1 has atomic number  6 and mass  12.00000

 Molecular mass:   129.12660 amu.
 Principal axes and moments of inertia in atomic units:
                           1         2         3
     Eigenvalues --   303.247053607.838473817.56582
           X            0.99999  -0.00330   0.00108
           Y            0.00330   0.99998  -0.00509
           Z           -0.00106   0.00510   0.99999
 This molecule is an asymmetric top.
 Rotational symmetry number  1.
 Rotational temperatures (Kelvin)      0.28562     0.02401     0.02269
 Rotational constants (GHZ):           5.95139     0.50023     0.47275
 Zero-point vibrational energy     567038.8 (Joules/Mol)
                                  135.52554 (Kcal/Mol)
 Warning -- explicit consideration of  16 degrees of freedom as
           vibrations may cause significant error
 Vibrational temperatures:     54.90    66.42    77.10   122.09   169.71
          (Kelvin)            177.07   232.09   312.02   366.04   393.08
                              416.43   484.55   623.98   713.14   809.58
                              865.58  1017.22  1104.85  1161.43  1218.00
                             1299.12  1406.61  1449.87  1492.13  1506.80
                             1544.94  1561.60  1597.26  1611.54  1660.53
                             1684.49  1722.25  1821.61  1881.08  1894.58
                             1927.47  1956.12  2014.06  2025.88  2063.93
                             2076.04  2118.56  2125.32  2139.25  2148.84
                             2159.75  2176.15  2179.63  2196.13  2388.95
                             2489.46  4217.75  4230.31  4276.33  4343.42
                             4349.05  4370.60  4376.45  4395.08  4425.00
                             4435.40  4458.72  4540.48  5015.55  5127.78
                             5131.07

 Zero-point correction=                           0.215974 (Hartree/Particle)
 Thermal correction to Energy=                    0.228055
 Thermal correction to Enthalpy=                  0.229000
 Thermal correction to Gibbs Free Energy=         0.176578
 Sum of electronic and zero-point Energies=           -401.722891
 Sum of electronic and thermal Energies=              -401.710810
 Sum of electronic and thermal Enthalpies=            -401.709865
 Sum of electronic and thermal Free Energies=         -401.762287

                     E (Thermal)             CV                S
                      KCal/Mol        Cal/Mol-Kelvin    Cal/Mol-Kelvin
 Total                  143.107             41.244            110.330
 Electronic               0.000              0.000              0.000
 Translational            0.889              2.981             40.480
 Rotational               0.889              2.981             29.814
 Vibrational            141.329             35.283             40.036
 Vibration     1          0.594              1.982              5.353
 Vibration     2          0.595              1.979              4.975
 Vibration     3          0.596              1.976              4.681
 Vibration     4          0.601              1.960              3.775
 Vibration     5          0.608              1.934              3.134
 Vibration     6          0.610              1.930              3.052
 Vibration     7          0.622              1.890              2.534
 Vibration     8          0.646              1.815              1.985
 Vibration     9          0.665              1.755              1.700
 Vibration    10          0.676              1.723              1.576
 Vibration    11          0.686              1.693              1.477
 Vibration    12          0.717              1.602              1.227
 Vibration    13          0.794              1.397              0.847
 Vibration    14          0.851              1.260              0.669
 Vibration    15          0.918              1.112              0.518
 Vibration    16          0.960              1.028              0.447

                           ! Non-Optimized Parameters !
 Normal termination of Gaussian 16 at Tue Jun  1 14:36:36 2021.
