 Gaussian 16, Revision A.03,
 Gaussian 16:  ES64L-G16RevA.03 25-Dec-2016

 -----------------------------
 # opt freq b3lyp/6-31g(2df,p)
 -----------------------------

 -------------------
 Title Card Required
 -------------------
 Symbolic Z-matrix:
 Charge =  0 Multiplicity = 1

 SCF Done:  E(RB3LYP) =  -400.713993455     A.U. after   14 cycles
 SCF Done:  E(RB3LYP) =  -400.717869130     A.U. after   13 cycles
 SCF Done:  E(RB3LYP) =  -400.718869897     A.U. after   12 cycles
 SCF Done:  E(RB3LYP) =  -400.720125503     A.U. after   13 cycles
 SCF Done:  E(RB3LYP) =  -400.721272454     A.U. after   13 cycles
 SCF Done:  E(RB3LYP) =  -400.722682518     A.U. after   12 cycles
 SCF Done:  E(RB3LYP) =  -400.723549877     A.U. after   11 cycles
 SCF Done:  E(RB3LYP) =  -400.724011493     A.U. after   12 cycles
 SCF Done:  E(RB3LYP) =  -400.724186515     A.U. after   11 cycles
 SCF Done:  E(RB3LYP) =  -400.724229566     A.U. after   10 cycles
 SCF Done:  E(RB3LYP) =  -400.721432892     A.U. after   13 cycles
 SCF Done:  E(RB3LYP) =  -400.724542041     A.U. after   10 cycles
 SCF Done:  E(RB3LYP) =  -400.724665689     A.U. after   11 cycles
 SCF Done:  E(RB3LYP) =  -400.724787327     A.U. after   11 cycles
 SCF Done:  E(RB3LYP) =  -400.724815816     A.U. after   10 cycles
 SCF Done:  E(RB3LYP) =  -400.724823510     A.U. after   10 cycles
 SCF Done:  E(RB3LYP) =  -400.724825046     A.U. after    8 cycles
 SCF Done:  E(RB3LYP) =  -400.724825454     A.U. after    7 cycles
 SCF Done:  E(RB3LYP) =  -400.724825469     A.U. after    6 cycles
 Optimization completed.
    -- Stationary point found.
 Normal termination of Gaussian 16 at Tue Jun  1 05:58:06 2021.

 ----------------------------------------------------------------------
 #N Geom=AllCheck Guess=TCheck SCRF=Check GenChk RB3LYP/6-31G(2df,p) Fr
 eq
 ----------------------------------------------------------------------

 Structure from the checkpoint file:  "CNdCpNpCpCpCCdN.chk"
 -------------------
 Title Card Required
 -------------------
 Charge =  0 Multiplicity = 1

                         Standard orientation:
 ---------------------------------------------------------------------
 Center     Atomic      Atomic             Coordinates (Angstroms)
 Number     Number       Type             X           Y           Z
 ---------------------------------------------------------------------
      1          6           0       -3.367728   -0.707891   -0.118790
      2          7           0       -2.016228   -0.615095   -0.641723
      3          6           0       -1.173858    0.097081    0.002578
      4          7           0       -1.421972    0.760535    1.192584
      5          6           0        0.254746    0.175546   -0.511377
      6          6           0        0.725222    1.617419   -0.764160
      7          6           0        1.219298   -0.591632    0.430106
      8          6           0        2.585652   -0.777256   -0.177674
      9          7           0        3.710527   -0.404573    0.277687
     10          1           0       -3.972839   -1.329038   -0.783969
     11          1           0       -3.867694    0.273870   -0.048991
     12          1           0       -3.401297   -1.162864    0.883851
     13          1           0       -2.384703    0.923585    1.440814
     14          1           0       -0.802464    1.512272    1.447826
     15          1           0        0.223653   -0.354953   -1.467193
     16          1           0        0.813545    2.195176    0.164404
     17          1           0        0.033093    2.145478   -1.426270
     18          1           0        1.714267    1.621919   -1.231019
     19          1           0        0.787578   -1.582306    0.624524
     20          1           0        1.309814   -0.080112    1.396289
     21          1           0        2.591468   -1.303575   -1.140641
     22          1           0        3.589294    0.074884    1.176449
 ---------------------------------------------------------------------

 SCF Done:  E(RB3LYP) =  -400.724825469     A.U. after    1 cycles

 The electronic state is 1-A.
 Alpha  occ. eigenvalues --  -14.34798 -14.31443 -14.29055 -10.24512 -10.22784
 Alpha  occ. eigenvalues --  -10.20102 -10.19645 -10.19629 -10.18734  -0.95011
 Alpha  occ. eigenvalues --   -0.89997  -0.85827  -0.80387  -0.71165  -0.69590
 Alpha  occ. eigenvalues --   -0.62222  -0.58300  -0.56196  -0.53297  -0.48071
 Alpha  occ. eigenvalues --   -0.46878  -0.45424  -0.44165  -0.42638  -0.41873
 Alpha  occ. eigenvalues --   -0.40562  -0.38627  -0.36917  -0.35341  -0.34528
 Alpha  occ. eigenvalues --   -0.33672  -0.30379  -0.25883  -0.23895  -0.23339
 Alpha virt. eigenvalues --    0.00001   0.03428   0.05747   0.09313   0.10710
 Alpha virt. eigenvalues --    0.11303   0.14538   0.14562   0.15443   0.16027
 Alpha virt. eigenvalues --    0.17108   0.17793   0.18459   0.18491   0.18956

 Mulliken charges:
               1
     1  C   -0.338491
     2  N   -0.274739
     3  C    0.331428
     4  N   -0.544557
     5  C   -0.044771
     6  C   -0.413300
     7  C   -0.249191
     8  C    0.066895
     9  N   -0.391207
    10  H    0.123586
    11  H    0.099489
    12  H    0.111156
    13  H    0.253786
    14  H    0.249278
    15  H    0.108343
    16  H    0.103599
    17  H    0.129517
    18  H    0.137387
    19  H    0.129228
    20  H    0.091374
    21  H    0.108981
    22  H    0.212207
 Sum of Mulliken charges =  -0.00000

 Dipole moment (field-independent basis, Debye):
    X=             -2.1422    Y=              2.2284    Z=              2.1350  Tot=              3.7567
 Quadrupole moment (field-independent basis, Debye-Ang):
   XX=            -67.0263   YY=            -53.9724   ZZ=            -54.5833
   XY=             -0.8646   XZ=             -2.1314   YZ=              1.8588

  Exact polarizability: 113.435   8.573  73.038   4.117   7.474  74.574
 Approx polarizability: 145.050  16.036 109.702  12.023  18.595 119.722

                      1                      2                      3
                      A                      A                      A
 Frequencies --     34.3082                64.3613                78.7147
 Red. masses --      3.2665                 2.8144                 3.3593
 Frc consts  --      0.0023                 0.0069                 0.0123
 IR Inten    --      2.3576                 2.0059                 1.0360

                      4                      5                      6
                      A                      A                      A
 Frequencies --    134.8514               151.1093               221.0820
 Red. masses --      2.4699                 1.1288                 1.8123
 Frc consts  --      0.0265                 0.0152                 0.0522
 IR Inten    --      0.7187                 0.8684                 3.5607

                      7                      8                      9
                      A                      A                      A
 Frequencies --    235.4365               262.9026               298.3517
 Red. masses --      1.3492                 2.6399                 3.4392
 Frc consts  --      0.0441                 0.1075                 0.1804
 IR Inten    --      1.2656                 9.8105                 1.2476

                     10                     11                     12
                      A                      A                      A
 Frequencies --    324.8782               339.6670               433.3735
 Red. masses --      2.3476                 2.8242                 1.2832
 Frc consts  --      0.1460                 0.1920                 0.1420
 IR Inten    --      6.4872                 0.2592                13.9729

                     13                     14                     15
                      A                      A                      A
 Frequencies --    448.9427               466.6866               527.5936
 Red. masses --      1.4964                 1.5228                 2.7328
 Frc consts  --      0.1777                 0.1954                 0.4482
 IR Inten    --    125.5414                64.6085                 6.2231

                     16                     17                     18
                      A                      A                      A
 Frequencies --    619.9219               715.4764               755.3197
 Red. masses --      2.3643                 2.8459                 2.8527
 Frc consts  --      0.5353                 0.8584                 0.9589
 IR Inten    --      2.7955                 0.6555                11.8765

                     19                     20                     21
                      A                      A                      A
 Frequencies --    835.0237               905.4418               912.1078
 Red. masses --      2.5017                 2.5743                 1.5014
 Frc consts  --      1.0277                 1.2435                 0.7359
 IR Inten    --      6.5049                 4.2868                 3.2267

                     22                     23                     24
                      A                      A                      A
 Frequencies --    997.5580              1000.3330              1047.9109
 Red. masses --      2.8071                 2.2066                 2.0322
 Frc consts  --      1.6459                 1.3009                 1.3148
 IR Inten    --      0.2334                 3.2342                24.8598

                     25                     26                     27
                      A                      A                      A
 Frequencies --   1086.1969              1102.7107              1109.8714
 Red. masses --      2.2311                 1.4335                 1.4890
 Frc consts  --      1.5509                 1.0270                 1.0807
 IR Inten    --      2.5961                13.5408                 6.9907

                     28                     29                     30
                      A                      A                      A
 Frequencies --   1123.5004              1152.7301              1184.0677
 Red. masses --      1.5404                 1.1004                 1.5892
 Frc consts  --      1.1456                 0.8615                 1.3128
 IR Inten    --     13.2808                39.8005                 2.5463

                     31                     32                     33
                      A                      A                      A
 Frequencies --   1220.4581              1274.7549              1299.3226
 Red. masses --      1.5453                 1.3060                 1.3476
 Frc consts  --      1.3561                 1.2504                 1.3405
 IR Inten    --      6.0055                17.3760                73.8564

                     34                     35                     36
                      A                      A                      A
 Frequencies --   1342.9622              1359.5680              1364.4303
 Red. masses --      1.6983                 2.5096                 1.3401
 Frc consts  --      1.8047                 2.7331                 1.4699
 IR Inten    --     20.8351                23.0099                10.4704

                     37                     38                     39
                      A                      A                      A
 Frequencies --   1414.0432              1423.6672              1434.0286
 Red. masses --      1.2325                 1.2223                 1.1995
 Frc consts  --      1.4519                 1.4596                 1.4533
 IR Inten    --      2.6728                32.7865                27.7044

                     40                     41                     42
                      A                      A                      A
 Frequencies --   1467.4252              1490.3434              1496.4218
 Red. masses --      1.0991                 1.0529                 1.0630
 Frc consts  --      1.3944                 1.3779                 1.4025
 IR Inten    --      4.1049                 0.9881                 8.8248

                     43                     44                     45
                      A                      A                      A
 Frequencies --   1502.1120              1506.7833              1645.1242
 Red. masses --      1.0495                 1.0457                 1.1788
 Frc consts  --      1.3952                 1.3989                 1.8796
 IR Inten    --      3.7576                 4.5018                77.7197

                     46                     47                     48
                      A                      A                      A
 Frequencies --   1727.9287              1735.0859              2949.3469
 Red. masses --      8.3184                 6.8088                 1.0470
 Frc consts  --     14.6333                12.0772                 5.3660
 IR Inten    --     55.6811               249.7551                66.8205

                     49                     50                     51
                      A                      A                      A
 Frequencies --   3001.0958              3017.6381              3026.1894
 Red. masses --      1.0945                 1.0576                 1.0420
 Frc consts  --      5.8079                 5.6741                 5.6222
 IR Inten    --     47.4638                14.0764                19.1156

                     52                     53                     54
                      A                      A                      A
 Frequencies --   3050.3431              3063.8828              3077.4975
 Red. masses --      1.0887                 1.0936                 1.0906
 Frc consts  --      5.9682                 6.0485                 6.0855
 IR Inten    --      9.7165                14.7822                15.4772

                     55                     56                     57
                      A                      A                      A
 Frequencies --   3096.7141              3097.0560              3117.9076
 Red. masses --      1.0935                 1.0923                 1.1025
 Frc consts  --      6.1783                 6.1728                 6.3147
 IR Inten    --     26.8205                45.9763                17.6346

                     58                     59                     60
                      A                      A                      A
 Frequencies --   3397.7736              3593.1570              3698.6973
 Red. masses --      1.0734                 1.0459                 1.0999
 Frc consts  --      7.3011                 7.9560                 8.8654
 IR Inten    --      5.6458                13.3695                20.6200

 - Thermochemistry -
 -------------------
 Temperature   298.150 Kelvin.  Pressure   1.00000 Atm.
 Atom     1 has atomic number  6 and mass  12.00000

 Molecular mass:   127.11095 amu.
 Principal axes and moments of inertia in atomic units:
                           1         2         3
     Eigenvalues --   513.968942380.860462494.14403
           X            0.99994   0.00905  -0.00559
           Y           -0.00908   0.99994  -0.00580
           Z            0.00553   0.00585   0.99997
 This molecule is an asymmetric top.
 Rotational symmetry number  1.
 Warning -- assumption of classical behavior for rotation
           may cause significant error
 Rotational temperatures (Kelvin)      0.16852     0.03638     0.03473
 Rotational constants (GHZ):           3.51138     0.75802     0.72359
 Zero-point vibrational energy     505196.1 (Joules/Mol)
                                  120.74476 (Kcal/Mol)
 Warning -- explicit consideration of  16 degrees of freedom as
           vibrations may cause significant error
 Vibrational temperatures:     49.36    92.60   113.25   194.02   217.41
          (Kelvin)            318.09   338.74   378.26   429.26   467.43
                              488.71   623.53   645.93   671.46   759.09
                              891.93  1029.41  1086.74  1201.41  1302.73
                             1312.32  1435.26  1439.26  1507.71  1562.80
                             1586.55  1596.86  1616.47  1658.52  1703.61
                             1755.97  1834.09  1869.44  1932.22  1956.12
                             1963.11  2034.49  2048.34  2063.25  2111.30
                             2144.27  2153.02  2161.20  2167.93  2366.97
                             2486.10  2496.40  4243.45  4317.91  4341.71
                             4354.01  4388.76  4408.24  4427.83  4455.48
                             4455.97  4485.97  4888.64  5169.75  5321.60

 Zero-point correction=                           0.192419 (Hartree/Particle)
 Thermal correction to Energy=                    0.203579
 Thermal correction to Enthalpy=                  0.204523
 Thermal correction to Gibbs Free Energy=         0.155154
 Sum of electronic and zero-point Energies=           -400.532406
 Sum of electronic and thermal Energies=              -400.521246
 Sum of electronic and thermal Enthalpies=            -400.520302
 Sum of electronic and thermal Free Energies=         -400.569671

                     E (Thermal)             CV                S
                      KCal/Mol        Cal/Mol-Kelvin    Cal/Mol-Kelvin
 Total                  127.748             39.595            103.906
 Electronic               0.000              0.000              0.000
 Translational            0.889              2.981             40.433
 Rotational               0.889              2.981             29.502
 Vibrational            125.970             33.633             33.971
 Vibration     1          0.594              1.983              5.563
 Vibration     2          0.597              1.971              4.319
 Vibration     3          0.600              1.963              3.923
 Vibration     4          0.613              1.919              2.876
 Vibration     5          0.619              1.901              2.658
 Vibration     6          0.648              1.809              1.950
 Vibration     7          0.655              1.787              1.837
 Vibration     8          0.670              1.741              1.642
 Vibration     9          0.691              1.677              1.426
 Vibration    10          0.709              1.626              1.285
 Vibration    11          0.720              1.596              1.214
 Vibration    12          0.794              1.398              0.848
 Vibration    13          0.808              1.363              0.799
 Vibration    14          0.824              1.324              0.747
 Vibration    15          0.883              1.189              0.593
 Vibration    16          0.980              0.990              0.417

                           ! Non-Optimized Parameters !
 Normal termination of Gaussian 16 at Tue Jun  1 06:32:51 2021.
