 Gaussian 16, Revision A.03,
 Gaussian 16:  ES64L-G16RevA.03 25-Dec-2016

 -----------------------------
 # opt freq b3lyp/6-31g(2df,p)
 -----------------------------

 -------------------
 Title Card Required
 -------------------
 Symbolic Z-matrix:
 Charge =  0 Multiplicity = 1

 SCF Done:  E(RB3LYP) =  -416.721752592     A.U. after   14 cycles
 SCF Done:  E(RB3LYP) =  -416.724421031     A.U. after   13 cycles
 SCF Done:  E(RB3LYP) =  -416.725514255     A.U. after   13 cycles
 SCF Done:  E(RB3LYP) =  -416.726516865     A.U. after   14 cycles
 SCF Done:  E(RB3LYP) =  -416.728075073     A.U. after   13 cycles
 SCF Done:  E(RB3LYP) =  -416.729833474     A.U. after   14 cycles
 SCF Done:  E(RB3LYP) =  -416.730615920     A.U. after   12 cycles
 SCF Done:  E(RB3LYP) =  -416.730957518     A.U. after   12 cycles
 SCF Done:  E(RB3LYP) =  -416.730794460     A.U. after   13 cycles
 SCF Done:  E(RB3LYP) =  -416.731065280     A.U. after   13 cycles
 SCF Done:  E(RB3LYP) =  -416.731437180     A.U. after   12 cycles
 SCF Done:  E(RB3LYP) =  -416.731449714     A.U. after   12 cycles
 SCF Done:  E(RB3LYP) =  -416.731516858     A.U. after   10 cycles
 SCF Done:  E(RB3LYP) =  -416.731581486     A.U. after   11 cycles
 SCF Done:  E(RB3LYP) =  -416.731590241     A.U. after   10 cycles
 SCF Done:  E(RB3LYP) =  -416.731592131     A.U. after   11 cycles
 SCF Done:  E(RB3LYP) =  -416.731593998     A.U. after   10 cycles
 SCF Done:  E(RB3LYP) =  -416.731594724     A.U. after   10 cycles
 SCF Done:  E(RB3LYP) =  -416.731594828     A.U. after    9 cycles
 Optimization completed.
    -- Stationary point found.
 Normal termination of Gaussian 16 at Tue Jun  1 13:55:35 2021.

 ----------------------------------------------------------------------
 #N Geom=AllCheck Guess=TCheck SCRF=Check GenChk RB3LYP/6-31G(2df,p) Fr
 eq
 ----------------------------------------------------------------------

 Structure from the checkpoint file:  "CNdCpNpCpCpCNdN.chk"
 -------------------
 Title Card Required
 -------------------
 Charge =  0 Multiplicity = 1

                         Standard orientation:
 ---------------------------------------------------------------------
 Center     Atomic      Atomic             Coordinates (Angstroms)
 Number     Number       Type             X           Y           Z
 ---------------------------------------------------------------------
      1          6           0       -3.364754   -0.637061   -0.179569
      2          7           0       -2.016922   -0.517270   -0.706381
      3          6           0       -1.148302    0.085838    0.010202
      4          7           0       -1.365262    0.601976    1.276333
      5          6           0        0.274567    0.200721   -0.512274
      6          6           0        0.756106    1.656403   -0.626151
      7          6           0        1.229971   -0.655726    0.346864
      8          7           0        2.534681   -0.760563   -0.315521
      9          7           0        3.471005   -0.373264    0.401768
     10          1           0       -3.994292   -1.155942   -0.906852
     11          1           0       -3.835954    0.341871    0.016471
     12          1           0       -3.400237   -1.209917    0.760692
     13          1           0       -2.319035    0.760455    1.559053
     14          1           0       -0.714320    1.287125    1.623724
     15          1           0        0.241986   -0.240094   -1.511018
     16          1           0        0.867567    2.137327    0.353206
     17          1           0        0.057098    2.251461   -1.220697
     18          1           0        1.735224    1.695159   -1.110668
     19          1           0        0.830732   -1.675365    0.401010
     20          1           0        1.345355   -0.259236    1.363537
     21          1           0        4.335835   -0.490053   -0.156281
 ---------------------------------------------------------------------

 SCF Done:  E(RB3LYP) =  -416.731594828     A.U. after    1 cycles

 The electronic state is 1-A.
 Alpha  occ. eigenvalues --  -14.38288 -14.37277 -14.34545 -14.28804 -10.24307
 Alpha  occ. eigenvalues --  -10.20880 -10.19634 -10.19422 -10.18314  -1.02770
 Alpha  occ. eigenvalues --   -0.94759  -0.85577  -0.80982  -0.73382  -0.69318
 Alpha  occ. eigenvalues --   -0.63816  -0.58051  -0.55949  -0.53205  -0.49207
 Alpha  occ. eigenvalues --   -0.48244  -0.44843  -0.44190  -0.42797  -0.41563
 Alpha  occ. eigenvalues --   -0.40442  -0.38920  -0.38252  -0.35123  -0.34602
 Alpha  occ. eigenvalues --   -0.33755  -0.32218  -0.23808  -0.23131  -0.22856
 Alpha virt. eigenvalues --   -0.04119   0.03533   0.06166   0.10241   0.10736
 Alpha virt. eigenvalues --    0.12905   0.13915   0.15322   0.15938   0.16835
 Alpha virt. eigenvalues --    0.17690   0.17938   0.18955   0.19533   0.20011

 Mulliken charges:
               1
     1  C   -0.338156
     2  N   -0.273918
     3  C    0.328601
     4  N   -0.543776
     5  C   -0.048792
     6  C   -0.409026
     7  C   -0.115257
     8  N   -0.109688
     9  N   -0.281141
    10  H    0.123105
    11  H    0.098989
    12  H    0.110835
    13  H    0.253548
    14  H    0.251277
    15  H    0.116352
    16  H    0.107234
    17  H    0.128075
    18  H    0.131045
    19  H    0.130685
    20  H    0.097098
    21  H    0.242909
 Sum of Mulliken charges =  -0.00000

 Dipole moment (field-independent basis, Debye):
    X=             -0.2639    Y=              1.8337    Z=              1.7060  Tot=              2.5184
 Quadrupole moment (field-independent basis, Debye-Ang):
   XX=            -50.8811   YY=            -53.9089   ZZ=            -57.0912
   XY=             -2.2792   XZ=             -6.3452   YZ=              0.3880

  Exact polarizability: 116.340   7.366  67.977   2.630   4.586  70.111
 Approx polarizability: 146.090  13.804 101.078  11.217  13.894 115.572

                      1                      2                      3
                      A                      A                      A
 Frequencies --     32.9805                67.1458                84.5618
 Red. masses --      3.5531                 3.4259                 4.5957
 Frc consts  --      0.0023                 0.0091                 0.0194
 IR Inten    --      2.1458                 0.6813                 0.3011

                      4                      5                      6
                      A                      A                      A
 Frequencies --    138.7895               154.3999               228.1729
 Red. masses --      3.0988                 1.1193                 1.0990
 Frc consts  --      0.0352                 0.0157                 0.0337
 IR Inten    --      2.4145                 1.0222                 0.5229

                      7                      8                      9
                      A                      A                      A
 Frequencies --    230.0854               264.6359               311.1853
 Red. masses --      2.9771                 3.0136                 3.0171
 Frc consts  --      0.0929                 0.1243                 0.1721
 IR Inten    --      1.6790                 5.7432                 2.2198

                     10                     11                     12
                      A                      A                      A
 Frequencies --    338.8911               340.5439               436.5856
 Red. masses --      2.8396                 3.5755                 1.2088
 Frc consts  --      0.1921                 0.2443                 0.1358
 IR Inten    --      0.6764                 2.2007               144.3707

                     13                     14                     15
                      A                      A                      A
 Frequencies --    447.4559               478.1103               566.4630
 Red. masses --      1.2625                 2.2104                 3.0847
 Frc consts  --      0.1489                 0.2977                 0.5832
 IR Inten    --     45.3358                20.7571                15.1704

                     16                     17                     18
                      A                      A                      A
 Frequencies --    628.3872               729.8576               811.2335
 Red. masses --      2.5091                 5.6782                 2.2735
 Frc consts  --      0.5837                 1.7821                 0.8815
 IR Inten    --      2.8714                 4.9473                 3.5823

                     19                     20                     21
                      A                      A                      A
 Frequencies --    858.5055               926.4530               953.6174
 Red. masses --      2.0772                 1.4792                 1.7391
 Frc consts  --      0.9020                 0.7480                 0.9318
 IR Inten    --     13.4238                 2.9890                12.2192

                     22                     23                     24
                      A                      A                      A
 Frequencies --    977.8069              1007.2847              1048.9777
 Red. masses --      2.6881                 2.4302                 1.7764
 Frc consts  --      1.5143                 1.4527                 1.1516
 IR Inten    --     15.5105                12.3037                22.9130

                     25                     26                     27
                      A                      A                      A
 Frequencies --   1096.8286              1114.8518              1123.9149
 Red. masses --      1.5548                 1.6178                 1.7752
 Frc consts  --      1.1021                 1.1847                 1.3212
 IR Inten    --      3.6441                 9.8126                 3.0871

                     28                     29                     30
                      A                      A                      A
 Frequencies --   1159.8496              1191.4846              1246.7119
 Red. masses --      1.9023                 1.7453                 1.2306
 Frc consts  --      1.5078                 1.4598                 1.1269
 IR Inten    --     10.2346                 4.6686                 8.3176

                     31                     32                     33
                      A                      A                      A
 Frequencies --   1294.6367              1344.8448              1361.2122
 Red. masses --      1.3396                 1.9716                 2.0862
 Frc consts  --      1.3229                 2.1010                 2.2775
 IR Inten    --      6.6205                32.5790                22.4619

                     34                     35                     36
                      A                      A                      A
 Frequencies --   1370.9672              1411.6929              1433.8095
 Red. masses --      1.3240                 1.2352                 1.1979
 Frc consts  --      1.4662                 1.4503                 1.4510
 IR Inten    --      0.7922                 3.8181                33.4488

                     37                     38                     39
                      A                      A                      A
 Frequencies --   1469.3083              1490.0091              1494.0946
 Red. masses --      1.0929                 1.0519                 1.0790
 Frc consts  --      1.3901                 1.3760                 1.4192
 IR Inten    --      1.1288                 1.4984                 6.8889

                     40                     41                     42
                      A                      A                      A
 Frequencies --   1496.9606              1502.1631              1506.8271
 Red. masses --      1.2782                 1.0462                 1.0456
 Frc consts  --      1.6876                 1.3909                 1.3988
 IR Inten    --     25.5891                 5.9886                 4.4817

                     43                     44                     45
                      A                      A                      A
 Frequencies --   1644.8161              1651.2827              1735.1124
 Red. masses --      1.2054                 8.2872                 6.9293
 Frc consts  --      1.9214                13.3138                12.2913
 IR Inten    --     81.8395                 2.4514               240.9572

                     46                     47                     48
                      A                      A                      A
 Frequencies --   2948.9409              3000.5790              3017.0991
 Red. masses --      1.0470                 1.0944                 1.0562
 Frc consts  --      5.3646                 5.8057                 5.6647
 IR Inten    --     67.2207                48.0345                16.9388

                     49                     50                     51
                      A                      A                      A
 Frequencies --   3029.4357              3075.7521              3088.3397
 Red. masses --      1.0409                 1.1019                 1.0902
 Frc consts  --      5.6283                 6.1417                 6.1266
 IR Inten    --     19.9601                 8.5353                 7.3848

                     52                     53                     54
                      A                      A                      A
 Frequencies --   3096.7102              3105.6796              3121.3631
 Red. masses --      1.0922                 1.0916                 1.1021
 Frc consts  --      6.1710                 6.2036                 6.3263
 IR Inten    --     36.1519                26.0690                17.6927

                     55                     56                     57
                      A                      A                      A
 Frequencies --   3239.3382              3594.4689              3701.2099
 Red. masses --      1.0737                 1.0458                 1.1002
 Frc consts  --      6.6381                 7.9614                 8.8797
 IR Inten    --     32.2992                14.1849                20.8537

 - Thermochemistry -
 -------------------
 Temperature   298.150 Kelvin.  Pressure   1.00000 Atm.
 Atom     1 has atomic number  6 and mass  12.00000

 Molecular mass:   128.10620 amu.
 Principal axes and moments of inertia in atomic units:
                           1         2         3
     Eigenvalues --   500.261612320.730012415.31145
           X            0.99991   0.01058  -0.00858
           Y           -0.01092   0.99913  -0.04017
           Z            0.00815   0.04026   0.99916
 This molecule is an asymmetric top.
 Rotational symmetry number  1.
 Warning -- assumption of classical behavior for rotation
           may cause significant error
 Rotational temperatures (Kelvin)      0.17314     0.03732     0.03586
 Rotational constants (GHZ):           3.60759     0.77766     0.74721
 Zero-point vibrational energy     473855.3 (Joules/Mol)
                                  113.25414 (Kcal/Mol)
 Warning -- explicit consideration of  15 degrees of freedom as
           vibrations may cause significant error
 Vibrational temperatures:     47.45    96.61   121.67   199.69   222.15
          (Kelvin)            328.29   331.04   380.75   447.73   487.59
                              489.97   628.15   643.79   687.89   815.01
                              904.11  1050.10  1167.18  1235.20  1332.96
                             1372.04  1406.85  1449.26  1509.24  1578.09
                             1604.02  1617.06  1668.76  1714.28  1793.74
                             1862.69  1934.93  1958.48  1972.52  2031.11
                             2062.93  2114.01  2143.79  2149.67  2153.79
                             2161.28  2167.99  2366.52  2375.83  2496.44
                             4242.87  4317.16  4340.93  4358.68  4425.32
                             4443.43  4455.48  4468.38  4490.95  4660.69
                             5171.64  5325.22

 Zero-point correction=                           0.180482 (Hartree/Particle)
 Thermal correction to Energy=                    0.191456
 Thermal correction to Enthalpy=                  0.192400
 Thermal correction to Gibbs Free Energy=         0.143419
 Sum of electronic and zero-point Energies=           -416.551113
 Sum of electronic and thermal Energies=              -416.540139
 Sum of electronic and thermal Enthalpies=            -416.539194
 Sum of electronic and thermal Free Energies=         -416.588175

                     E (Thermal)             CV                S
                      KCal/Mol        Cal/Mol-Kelvin    Cal/Mol-Kelvin
 Total                  120.141             38.677            103.089
 Electronic               0.000              0.000              0.000
 Translational            0.889              2.981             40.456
 Rotational               0.889              2.981             29.418
 Vibrational            118.363             32.715             33.215
 Vibration     1          0.594              1.983              5.642
 Vibration     2          0.598              1.970              4.235
 Vibration     3          0.601              1.960              3.782
 Vibration     4          0.614              1.915              2.820
 Vibration     5          0.620              1.898              2.617
 Vibration     6          0.651              1.798              1.893
 Vibration     7          0.652              1.795              1.878
 Vibration     8          0.671              1.738              1.631
 Vibration     9          0.700              1.652              1.356
 Vibration    10          0.719              1.598              1.217
 Vibration    11          0.720              1.594              1.210
 Vibration    12          0.797              1.390              0.837
 Vibration    13          0.807              1.367              0.804
 Vibration    14          0.835              1.299              0.715
 Vibration    15          0.922              1.104              0.511

 Optimization completed.
    -- Stationary point found.
 Normal termination of Gaussian 16 at Tue Jun  1 14:23:33 2021.
