 Gaussian 16, Revision A.03,
 Gaussian 16:  ES64L-G16RevA.03 25-Dec-2016

 -----------------------------
 # opt freq b3lyp/6-31g(2df,p)
 -----------------------------

 -------------------
 Title Card Required
 -------------------
 Symbolic Z-matrix:
 Charge =  0 Multiplicity = 1

 SCF Done:  E(RB3LYP) =  -504.011102004     A.U. after   16 cycles
 SCF Done:  E(RB3LYP) =  -504.026356345     A.U. after   16 cycles
 SCF Done:  E(RB3LYP) =  -504.035281448     A.U. after   13 cycles
 SCF Done:  E(RB3LYP) =  -504.040945990     A.U. after   14 cycles
 SCF Done:  E(RB3LYP) =  -504.050961404     A.U. after   16 cycles
 SCF Done:  E(RB3LYP) =  -504.058104701     A.U. after   15 cycles
 SCF Done:  E(RB3LYP) =  -504.064646135     A.U. after   14 cycles
 SCF Done:  E(RB3LYP) =  -504.069679603     A.U. after   14 cycles
 SCF Done:  E(RB3LYP) =  -504.071853890     A.U. after   14 cycles
 SCF Done:  E(RB3LYP) =  -504.073018643     A.U. after   14 cycles
 SCF Done:  E(RB3LYP) =  -504.077300620     A.U. after   13 cycles
 SCF Done:  E(RB3LYP) =  -504.077493604     A.U. after   12 cycles
 SCF Done:  E(RB3LYP) =  -504.077704379     A.U. after   13 cycles
 SCF Done:  E(RB3LYP) =  -504.077723975     A.U. after   12 cycles
 SCF Done:  E(RB3LYP) =  -504.077745358     A.U. after   12 cycles
 SCF Done:  E(RB3LYP) =  -504.077750873     A.U. after   11 cycles
 SCF Done:  E(RB3LYP) =  -504.077752242     A.U. after    9 cycles
 SCF Done:  E(RB3LYP) =  -504.077752837     A.U. after    9 cycles
 SCF Done:  E(RB3LYP) =  -504.077752936     A.U. after    7 cycles
 Optimization completed.
    -- Stationary point found.
 Normal termination of Gaussian 16 at Tue Jun  1 07:32:57 2021.

 ----------------------------------------------------------------------
 #N Geom=AllCheck Guess=TCheck SCRF=Check GenChk RB3LYP/6-31G(2df,p) Fr
 eq
 ----------------------------------------------------------------------

 Structure from the checkpoint file:  "CNdNCNpNdCNpNN.chk"
 -------------------
 Title Card Required
 -------------------
 Charge =  0 Multiplicity = 1

                         Standard orientation:
 ---------------------------------------------------------------------
 Center     Atomic      Atomic             Coordinates (Angstroms)
 Number     Number       Type             X           Y           Z
 ---------------------------------------------------------------------
      1          6           0       -3.791982    0.191762   -0.051772
      2          7           0       -2.638859   -0.694849    0.110675
      3          7           0       -1.561067   -0.086301    0.105955
      4          6           0       -0.410580   -0.980723    0.294079
      5          7           0        0.701996   -0.486106   -0.510153
      6          7           0        1.333631    0.631527    0.153620
      7          6           0        0.902948    1.751958   -0.287591
      8          7           0        1.297849    2.942550    0.255787
      9          7           0        1.646208   -1.540818   -0.690553
     10          7           0        2.450197   -1.871085    0.447493
     11          1           0       -4.357839   -0.144706   -0.927046
     12          1           0       -3.498345    1.240988   -0.161466
     13          1           0       -4.442701    0.065585    0.820357
     14          1           0       -0.640456   -1.999490   -0.026504
     15          1           0       -0.177958   -0.969309    1.372009
     16          1           0        0.157100    1.820612   -1.080486
     17          1           0        2.096117    2.906889    0.872676
     18          1           0        1.236815    3.761938   -0.325641
     19          1           0        2.289570   -1.195843   -1.394642
     20          1           0        1.909622   -2.508196    1.024409
     21          1           0        2.616072   -1.020876    0.988275
 ---------------------------------------------------------------------

 SCF Done:  E(RB3LYP) =  -504.077752936     A.U. after    1 cycles

 The electronic state is 1-A.
 Alpha  occ. eigenvalues --  -14.37197 -14.36958 -14.36269 -14.35388 -14.35266
 Alpha  occ. eigenvalues --  -14.32113 -14.31890 -10.24995 -10.22196 -10.20333
 Alpha  occ. eigenvalues --   -1.03153  -1.01068  -0.94577  -0.89309  -0.81533
 Alpha  occ. eigenvalues --   -0.77774  -0.71595  -0.64914  -0.59938  -0.56968
 Alpha  occ. eigenvalues --   -0.53593  -0.50015  -0.49536  -0.48420  -0.46069
 Alpha  occ. eigenvalues --   -0.45677  -0.45059  -0.43916  -0.43065  -0.39768
 Alpha  occ. eigenvalues --   -0.37119  -0.35734  -0.33419  -0.31357  -0.25554
 Alpha  occ. eigenvalues --   -0.24874  -0.23888  -0.22074  -0.20419
 Alpha virt. eigenvalues --   -0.03014   0.02780   0.07382   0.10212   0.11479
 Alpha virt. eigenvalues --    0.12059   0.12654   0.14790   0.15322   0.16421
 Alpha virt. eigenvalues --    0.16709   0.16877   0.18088   0.19094   0.20306

 Mulliken charges:
               1
     1  C   -0.288501
     2  N   -0.093548
     3  N   -0.134325
     4  C   -0.030731
     5  N   -0.097382
     6  N   -0.252255
     7  C    0.151605
     8  N   -0.505434
     9  N   -0.242851
    10  N   -0.466752
    11  H    0.136353
    12  H    0.118884
    13  H    0.136007
    14  H    0.123725
    15  H    0.096957
    16  H    0.117645
    17  H    0.258555
    18  H    0.259373
    19  H    0.239862
    20  H    0.236679
    21  H    0.236132
 Sum of Mulliken charges =  -0.00000

 Dipole moment (field-independent basis, Debye):
    X=             -0.5320    Y=              3.8014    Z=              0.2692  Tot=              3.8479
 Quadrupole moment (field-independent basis, Debye-Ang):
   XX=            -56.3197   YY=            -52.6463   ZZ=            -57.2135
   XY=              6.8196   XZ=              1.0125   YZ=             -4.5825

  Exact polarizability: 106.807  -2.395 102.421   5.059  -2.936  63.488
 Approx polarizability: 136.559  -2.408 147.341   7.873  -4.134  99.765

                      1                      2                      3
                      A                      A                      A
 Frequencies --     51.2214                73.2756                89.0075
 Red. masses --      3.7034                 3.3033                 2.3986
 Frc consts  --      0.0057                 0.0104                 0.0112
 IR Inten    --      0.6464                 1.6494                 3.8712

                      4                      5                      6
                      A                      A                      A
 Frequencies --    121.5544               139.9465               193.8301
 Red. masses --      3.1457                 3.1405                 1.8734
 Frc consts  --      0.0274                 0.0362                 0.0415
 IR Inten    --      3.0273                 0.4090                 0.8041

                      7                      8                      9
                      A                      A                      A
 Frequencies --    206.9851               212.9288               316.0034
 Red. masses --      2.0906                 2.6073                 2.8620
 Frc consts  --      0.0528                 0.0696                 0.1684
 IR Inten    --      2.8615                 5.2332                13.4178

                     10                     11                     12
                      A                      A                      A
 Frequencies --    335.0935               353.5574               375.0780
 Red. masses --      1.9962                 2.7844                 3.7016
 Frc consts  --      0.1321                 0.2051                 0.3068
 IR Inten    --     36.0548                17.8792                23.3824

                     13                     14                     15
                      A                      A                      A
 Frequencies --    416.8460               456.7715               494.6686
 Red. masses --      1.3587                 1.4733                 3.1450
 Frc consts  --      0.1391                 0.1811                 0.4534
 IR Inten    --    145.0054                28.0024                23.2060

                     16                     17                     18
                      A                      A                      A
 Frequencies --    546.2969               588.1480               628.1891
 Red. masses --      3.6177                 1.5041                 2.9618
 Frc consts  --      0.6361                 0.3065                 0.6886
 IR Inten    --     12.1854                89.3264                20.0569

                     19                     20                     21
                      A                      A                      A
 Frequencies --    703.7194               816.4804               879.1575
 Red. masses --      3.6522                 3.2663                 3.4214
 Frc consts  --      1.0656                 1.2829                 1.5581
 IR Inten    --     21.1617                98.9726                20.1089

                     22                     23                     24
                      A                      A                      A
 Frequencies --    906.7571               957.3846               978.5607
 Red. masses --      2.7080                 2.5536                 2.1097
 Frc consts  --      1.3118                 1.3790                 1.1903
 IR Inten    --    122.0085                 0.5194                12.7038

                     25                     26                     27
                      A                      A                      A
 Frequencies --   1008.4163              1030.7303              1081.4005
 Red. masses --      1.5285                 3.3178                 1.6512
 Frc consts  --      0.9158                 2.0768                 1.1377
 IR Inten    --     10.3447                 5.3357                 0.9747

                     28                     29                     30
                      A                      A                      A
 Frequencies --   1109.6785              1130.2842              1145.4791
 Red. masses --      1.6243                 1.7483                 2.5368
 Frc consts  --      1.1784                 1.3160                 1.9611
 IR Inten    --      4.5100                 2.5747                27.1801

                     31                     32                     33
                      A                      A                      A
 Frequencies --   1193.7863              1201.7783              1259.7626
 Red. masses --      2.0730                 2.1178                 1.2307
 Frc consts  --      1.7406                 1.8021                 1.1508
 IR Inten    --     47.3494                34.7995                 7.0723

                     34                     35                     36
                      A                      A                      A
 Frequencies --   1298.2091              1330.0094              1365.2557
 Red. masses --      2.0362                 1.3192                 1.3817
 Frc consts  --      2.0219                 1.3749                 1.5174
 IR Inten    --     72.5758                11.6333                33.8428

                     37                     38                     39
                      A                      A                      A
 Frequencies --   1381.1096              1408.9132              1464.7958
 Red. masses --      1.5895                 1.1986                 1.0830
 Frc consts  --      1.7864                 1.4018                 1.3691
 IR Inten    --      4.2459                 1.2182                 3.3199

                     40                     41                     42
                      A                      A                      A
 Frequencies --   1472.1189              1472.3176              1522.7545
 Red. masses --      1.0481                 1.0591                 1.1108
 Frc consts  --      1.3383                 1.3526                 1.5175
 IR Inten    --      5.7582                11.2305                 0.2038

                     43                     44                     45
                      A                      A                      A
 Frequencies --   1626.3932              1667.9801              1673.5824
 Red. masses --      1.2244                 1.0759                 8.9335
 Frc consts  --      1.9082                 1.7635                14.7423
 IR Inten    --     28.7773                11.3586                 1.2591

                     46                     47                     48
                      A                      A                      A
 Frequencies --   1726.7708              2962.9265              3020.1241
 Red. masses --      5.5107                 1.0659                 1.0307
 Frc consts  --      9.6811                 5.5132                 5.5391
 IR Inten    --    347.7146                37.4614                25.4861

                     49                     50                     51
                      A                      A                      A
 Frequencies --   3098.8845              3103.3775              3112.3112
 Red. masses --      1.1005                 1.0937                 1.1059
 Frc consts  --      6.2268                 6.2059                 6.3113
 IR Inten    --     11.7568                10.6249                15.5470

                     52                     53                     54
                      A                      A                      A
 Frequencies --   3124.9149              3431.8730              3524.3016
 Red. masses --      1.0900                 1.0499                 1.0771
 Frc consts  --      6.2710                 7.2857                 7.8824
 IR Inten    --     17.5893                 7.4521                 1.3017

                     55                     56                     57
                      A                      A                      A
 Frequencies --   3548.4944              3579.9335              3702.7039
 Red. masses --      1.0884                 1.0465                 1.1001
 Frc consts  --      8.0747                 7.9017                 8.8864
 IR Inten    --      2.2850                32.5410                27.8853

 - Thermochemistry -
 -------------------
 Temperature   298.150 Kelvin.  Pressure   1.00000 Atm.
 Atom     1 has atomic number  6 and mass  12.00000

 Molecular mass:   145.10759 amu.
 Principal axes and moments of inertia in atomic units:
                           1         2         3
     Eigenvalues --  1199.215192118.513093130.57035
           X            0.99996  -0.00657   0.00613
           Y            0.00666   0.99989  -0.01349
           Z           -0.00604   0.01353   0.99989
 This molecule is an asymmetric top.
 Rotational symmetry number  1.
 Warning -- assumption of classical behavior for rotation
           may cause significant error
 Rotational temperatures (Kelvin)      0.07223     0.04088     0.02767
 Rotational constants (GHZ):           1.50494     0.85189     0.57649
 Zero-point vibrational energy     458306.3 (Joules/Mol)
                                  109.53784 (Kcal/Mol)
 Warning -- explicit consideration of  17 degrees of freedom as
           vibrations may cause significant error
 Vibrational temperatures:     73.70   105.43   128.06   174.89   201.35
          (Kelvin)            278.88   297.81   306.36   454.66   482.12
                              508.69   539.65   599.75   657.19   711.72
                              786.00   846.21   903.82  1012.50  1174.73
                             1264.91  1304.62  1377.46  1407.93  1450.89
                             1482.99  1555.89  1596.58  1626.23  1648.09
                             1717.59  1729.09  1812.52  1867.83  1913.59
                             1964.30  1987.11  2027.11  2107.51  2118.05
                             2118.34  2190.90  2340.02  2399.85  2407.91
                             2484.44  4262.99  4345.28  4458.60  4465.07
                             4477.92  4496.06  4937.70  5070.68  5105.49
                             5150.73  5327.37

 Zero-point correction=                           0.174560 (Hartree/Particle)
 Thermal correction to Energy=                    0.186202
 Thermal correction to Enthalpy=                  0.187146
 Thermal correction to Gibbs Free Energy=         0.136682
 Sum of electronic and zero-point Energies=           -503.903193
 Sum of electronic and thermal Energies=              -503.891551
 Sum of electronic and thermal Enthalpies=            -503.890607
 Sum of electronic and thermal Free Energies=         -503.941071

                     E (Thermal)             CV                S
                      KCal/Mol        Cal/Mol-Kelvin    Cal/Mol-Kelvin
 Total                  116.843             41.519            106.209
 Electronic               0.000              0.000              0.000
 Translational            0.889              2.981             40.828
 Rotational               0.889              2.981             30.454
 Vibrational            115.066             35.558             34.928
 Vibration     1          0.595              1.977              4.770
 Vibration     2          0.599              1.967              4.063
 Vibration     3          0.602              1.957              3.682
 Vibration     4          0.609              1.931              3.076
 Vibration     5          0.615              1.913              2.805
 Vibration     6          0.635              1.848              2.191
 Vibration     7          0.641              1.830              2.070
 Vibration     8          0.644              1.821              2.018
 Vibration     9          0.703              1.643              1.331
 Vibration    10          0.716              1.605              1.235
 Vibration    11          0.730              1.568              1.150
 Vibration    12          0.746              1.523              1.059
 Vibration    13          0.780              1.434              0.903
 Vibration    14          0.815              1.346              0.776
 Vibration    15          0.850              1.262              0.672
 Vibration    16          0.901              1.148              0.552
 Vibration    17          0.945              1.057              0.470

 Optimization completed.
    -- Stationary point found.
 Normal termination of Gaussian 16 at Tue Jun  1 08:03:11 2021.
