 Gaussian 16, Revision A.03,
 Gaussian 16:  ES64L-G16RevA.03 25-Dec-2016

 -----------------------------
 # opt freq b3lyp/6-31g(2df,p)
 -----------------------------

 -------------------
 Title Card Required
 -------------------
 Symbolic Z-matrix:
 Charge =  0 Multiplicity = 1

 SCF Done:  E(RB3LYP) =  -486.812617725     A.U. after   15 cycles
 SCF Done:  E(RB3LYP) =  -486.842542976     A.U. after   14 cycles
 SCF Done:  E(RB3LYP) =  -486.846231969     A.U. after   14 cycles
 SCF Done:  E(RB3LYP) =  -486.848748761     A.U. after   14 cycles
 SCF Done:  E(RB3LYP) =  -486.850902497     A.U. after   14 cycles
 SCF Done:  E(RB3LYP) =  -486.852241756     A.U. after   13 cycles
 SCF Done:  E(RB3LYP) =  -486.853085359     A.U. after   13 cycles
 SCF Done:  E(RB3LYP) =  -486.853248455     A.U. after   12 cycles
 SCF Done:  E(RB3LYP) =  -486.853655317     A.U. after   12 cycles
 SCF Done:  E(RB3LYP) =  -486.854453172     A.U. after   13 cycles
 SCF Done:  E(RB3LYP) =  -486.855553928     A.U. after   11 cycles
 SCF Done:  E(RB3LYP) =  -486.855766321     A.U. after   12 cycles
 SCF Done:  E(RB3LYP) =  -486.855796681     A.U. after   11 cycles
 SCF Done:  E(RB3LYP) =  -486.855818483     A.U. after   12 cycles
 SCF Done:  E(RB3LYP) =  -486.855828095     A.U. after   11 cycles
 SCF Done:  E(RB3LYP) =  -486.855835062     A.U. after   10 cycles
 SCF Done:  E(RB3LYP) =  -486.855837856     A.U. after    8 cycles
 SCF Done:  E(RB3LYP) =  -486.855838446     A.U. after    8 cycles
 SCF Done:  E(RB3LYP) =  -486.855838473     A.U. after    7 cycles
 Optimization completed.
    -- Stationary point found.
 Normal termination of Gaussian 16 at Mon May 31 23:39:53 2021.

 ----------------------------------------------------------------------
 #N Geom=AllCheck Guess=TCheck SCRF=Check GenChk RB3LYP/6-31G(2df,p) Fr
 eq
 ----------------------------------------------------------------------

 Structure from the checkpoint file:  "CNdNNCNpNpCCtN.chk"
 -------------------
 Title Card Required
 -------------------
 Charge =  0 Multiplicity = 1

                         Standard orientation:
 ---------------------------------------------------------------------
 Center     Atomic      Atomic             Coordinates (Angstroms)
 Number     Number       Type             X           Y           Z
 ---------------------------------------------------------------------
      1          6           0       -4.567502    0.127805    0.181707
      2          7           0       -3.311960    0.046173   -0.556363
      3          7           0       -2.330052   -0.078631    0.200215
      4          7           0       -1.145701   -0.083968   -0.462517
      5          6           0       -0.035532   -0.717806    0.209100
      6          7           0        1.196454   -0.026186   -0.148380
      7          7           0        1.179644    1.289171    0.502288
      8          6           0        2.348296   -0.752232    0.379815
      9          6           0        3.602334   -0.159767   -0.099234
     10          7           0        4.589348    0.313152   -0.467853
     11          1           0       -5.047319    1.086887   -0.043570
     12          1           0       -4.424726    0.031642    1.263364
     13          1           0       -5.237195   -0.660716   -0.178502
     14          1           0       -1.222305   -0.197648   -1.471456
     15          1           0        0.086298   -1.770117   -0.083028
     16          1           0       -0.257843   -0.671283    1.286736
     17          1           0        0.264785    1.667429    0.253989
     18          1           0        1.836308    1.853171   -0.038496
     19          1           0        2.301950   -1.788493    0.028205
     20          1           0        2.370339   -0.756852    1.482695
 ---------------------------------------------------------------------

 SCF Done:  E(RB3LYP) =  -486.855838473     A.U. after    1 cycles

 The electronic state is 1-A.
 Alpha  occ. eigenvalues --  -14.41397 -14.38196 -14.37542 -14.36090 -14.35064
 Alpha  occ. eigenvalues --  -14.33464 -10.26417 -10.26301 -10.22570 -10.20853
 Alpha  occ. eigenvalues --   -1.07436  -0.99884  -0.91788  -0.90475  -0.82699
 Alpha  occ. eigenvalues --   -0.77200  -0.71884  -0.64433  -0.62577  -0.54843
 Alpha  occ. eigenvalues --   -0.53342  -0.51450  -0.50166  -0.48492  -0.45980
 Alpha  occ. eigenvalues --   -0.44418  -0.43357  -0.42270  -0.41675  -0.38252
 Alpha  occ. eigenvalues --   -0.37097  -0.36291  -0.34285  -0.33713  -0.32718
 Alpha  occ. eigenvalues --   -0.25447  -0.24914  -0.22258
 Alpha virt. eigenvalues --   -0.02366   0.01935   0.03590   0.07664   0.09258
 Alpha virt. eigenvalues --    0.10234   0.11719   0.12262   0.13162   0.14458
 Alpha virt. eigenvalues --    0.16116   0.16407   0.16750   0.17363   0.18622

 Mulliken charges:
               1
     1  C   -0.294092
     2  N   -0.155130
     3  N   -0.051660
     4  N   -0.219607
     5  C   -0.064736
     6  N   -0.116060
     7  N   -0.484158
     8  C   -0.250299
     9  C    0.274235
    10  N   -0.303282
    11  H    0.133701
    12  H    0.123021
    13  H    0.131712
    14  H    0.237130
    15  H    0.110092
    16  H    0.123739
    17  H    0.253062
    18  H    0.258345
    19  H    0.151023
    20  H    0.142964
 Sum of Mulliken charges =  -0.00000

 Dipole moment (field-independent basis, Debye):
    X=             -3.3613    Y=             -1.7531    Z=              0.4754  Tot=              3.8207
 Quadrupole moment (field-independent basis, Debye-Ang):
   XX=            -76.5536   YY=            -54.2099   ZZ=            -61.4159
   XY=             -5.0892   XZ=              2.5360   YZ=             -1.1017

  Exact polarizability: 140.898  -0.045  69.385  -3.520  -2.194  63.924
 Approx polarizability: 177.010   5.350 105.802  -4.439  -5.094 101.930

                      1                      2                      3
                      A                      A                      A
 Frequencies --     34.5221                56.4680               100.2296
 Red. masses --      4.6571                 5.6940                 4.4392
 Frc consts  --      0.0033                 0.0107                 0.0263
 IR Inten    --      1.1731                 4.0545                 3.8696

                      4                      5                      6
                      A                      A                      A
 Frequencies --    118.0672               156.6890               183.2612
 Red. masses --      1.7188                 4.6756                 1.6340
 Frc consts  --      0.0141                 0.0676                 0.0323
 IR Inten    --      0.3125                 5.1315                 6.1548

                      7                      8                      9
                      A                      A                      A
 Frequencies --    231.7150               235.7190               285.8054
 Red. masses --      1.1610                 3.3196                 3.9652
 Frc consts  --      0.0367                 0.1087                 0.1908
 IR Inten    --     41.2793                23.1924                 4.1106

                     10                     11                     12
                      A                      A                      A
 Frequencies --    303.1193               342.7471               394.1113
 Red. masses --      5.2813                 3.1999                 3.9911
 Frc consts  --      0.2859                 0.2215                 0.3652
 IR Inten    --      2.6998                12.2644                 3.7349

                     13                     14                     15
                      A                      A                      A
 Frequencies --    426.8458               432.2699               498.5163
 Red. masses --      4.1138                 2.3658                 3.5545
 Frc consts  --      0.4416                 0.2605                 0.5205
 IR Inten    --      4.5942                20.9065                36.3896

                     16                     17                     18
                      A                      A                      A
 Frequencies --    605.1875               667.2092               721.0519
 Red. masses --      5.0281                 3.6399                 1.3602
 Frc consts  --      1.0850                 0.9547                 0.4167
 IR Inten    --      2.9312                 1.4758               120.9740

                     19                     20                     21
                      A                      A                      A
 Frequencies --    851.3368               939.1549               985.1825
 Red. masses --      5.3904                 4.0850                 1.8745
 Frc consts  --      2.3019                 2.1229                 1.0719
 IR Inten    --      9.7176                 4.2438                48.8233

                     22                     23                     24
                      A                      A                      A
 Frequencies --   1001.0530              1025.2767              1087.2069
 Red. masses --      2.2900                 3.8435                 2.3580
 Frc consts  --      1.3521                 2.3805                 1.6422
 IR Inten    --     19.8086                10.3708                43.0846

                     25                     26                     27
                      A                      A                      A
 Frequencies --   1104.6965              1112.6905              1144.6031
 Red. masses --      2.3920                 1.3431                 1.6587
 Frc consts  --      1.7199                 0.9797                 1.2803
 IR Inten    --    112.9307                 0.3108                 4.8100

                     28                     29                     30
                      A                      A                      A
 Frequencies --   1169.4037              1192.5936              1215.6726
 Red. masses --      2.9794                 1.6858                 1.7006
 Frc consts  --      2.4006                 1.4127                 1.4808
 IR Inten    --    182.3275                41.2158                45.9526

                     31                     32                     33
                      A                      A                      A
 Frequencies --   1274.9867              1321.1710              1349.6434
 Red. masses --      1.4784                 1.3727                 1.2318
 Frc consts  --      1.4160                 1.4117                 1.3220
 IR Inten    --     24.3935                10.7725                43.0883

                     34                     35                     36
                      A                      A                      A
 Frequencies --   1415.3146              1423.3473              1430.7373
 Red. masses --      1.4262                 1.3674                 1.2932
 Frc consts  --      1.6832                 1.6321                 1.5597
 IR Inten    --      5.1225                37.2248                 5.0600

                     37                     38                     39
                      A                      A                      A
 Frequencies --   1453.3895              1468.8810              1475.9760
 Red. masses --      1.0942                 1.3631                 1.0466
 Frc consts  --      1.3617                 1.7328                 1.3434
 IR Inten    --      3.0617                48.6894                 4.0998

                     40                     41                     42
                      A                      A                      A
 Frequencies --   1487.3455              1498.1738              1626.4047
 Red. masses --      1.0898                 1.1551                 6.3109
 Frc consts  --      1.4204                 1.5275                 9.8356
 IR Inten    --      2.3606                16.0042               110.9647

                     43                     44                     45
                      A                      A                      A
 Frequencies --   1659.1072              2368.5346              2968.5016
 Red. masses --      1.0803                12.6212                 1.0672
 Frc consts  --      1.7521                41.7167                 5.5407
 IR Inten    --     40.6986                 2.7731                18.3766

                     46                     47                     48
                      A                      A                      A
 Frequencies --   2982.8938              3018.6382              3029.3696
 Red. masses --      1.0555                 1.0312                 1.1061
 Frc consts  --      5.5334                 5.5361                 5.9808
 IR Inten    --     47.7672                49.0540                33.0091

                     49                     50                     51
                      A                      A                      A
 Frequencies --   3076.1269              3087.9880              3104.6544
 Red. masses --      1.0895                 1.1012                 1.1052
 Frc consts  --      6.0743                 6.1869                 6.2768
 IR Inten    --      6.2984                17.3953                19.5127

                     52                     53                     54
                      A                      A                      A
 Frequencies --   3437.7577              3484.0947              3511.9447
 Red. masses --      1.0503                 1.0745                 1.0911
 Frc consts  --      7.3137                 7.6847                 7.9291
 IR Inten    --      4.6566                 5.2309                12.5115

 - Thermochemistry -
 -------------------
 Temperature   298.150 Kelvin.  Pressure   1.00000 Atm.
 Atom     1 has atomic number  6 and mass  12.00000

 Molecular mass:   142.09669 amu.
 Principal axes and moments of inertia in atomic units:
                           1         2         3
     Eigenvalues --   282.031154172.792184274.40702
           X            0.99999  -0.00353   0.00053
           Y            0.00355   0.99917  -0.04048
           Z           -0.00038   0.04048   0.99918
 This molecule is an asymmetric top.
 Rotational symmetry number  1.
 Rotational temperatures (Kelvin)      0.30711     0.02076     0.02026
 Rotational constants (GHZ):           6.39908     0.43250     0.42222
 Zero-point vibrational energy     428127.9 (Joules/Mol)
                                  102.32501 (Kcal/Mol)
 Warning -- explicit consideration of  16 degrees of freedom as
           vibrations may cause significant error
 Vibrational temperatures:     49.67    81.24   144.21   169.87   225.44
          (Kelvin)            263.67   333.39   339.15   411.21   436.12
                              493.14   567.04   614.14   621.94   717.25
                              870.73   959.97  1037.43  1224.88  1351.23
                             1417.46  1440.29  1475.14  1564.25  1589.41
                             1600.91  1646.83  1682.51  1715.88  1749.08
                             1834.42  1900.87  1941.84  2036.32  2047.88
                             2058.51  2091.10  2113.39  2123.60  2139.96
                             2155.54  2340.03  2387.09  3407.79  4271.01
                             4291.72  4343.15  4358.59  4425.86  4442.93
                             4466.91  4946.17  5012.84  5052.91

 Zero-point correction=                           0.163065 (Hartree/Particle)
 Thermal correction to Energy=                    0.174429
 Thermal correction to Enthalpy=                  0.175373
 Thermal correction to Gibbs Free Energy=         0.125137
 Sum of electronic and zero-point Energies=           -486.692773
 Sum of electronic and thermal Energies=              -486.681410
 Sum of electronic and thermal Enthalpies=            -486.680466
 Sum of electronic and thermal Free Energies=         -486.730701

                     E (Thermal)             CV                S
                      KCal/Mol        Cal/Mol-Kelvin    Cal/Mol-Kelvin
 Total                  109.456             39.416            105.730
 Electronic               0.000              0.000              0.000
 Translational            0.889              2.981             40.765
 Rotational               0.889              2.981             29.999
 Vibrational            107.678             33.455             34.966
 Vibration     1          0.594              1.983              5.551
 Vibration     2          0.596              1.975              4.577
 Vibration     3          0.604              1.949              3.450
 Vibration     4          0.608              1.934              3.132
 Vibration     5          0.620              1.895              2.589
 Vibration     6          0.631              1.863              2.295
 Vibration     7          0.653              1.792              1.866
 Vibration     8          0.655              1.786              1.835
 Vibration     9          0.684              1.700              1.499
 Vibration    10          0.695              1.668              1.400
 Vibration    11          0.722              1.590              1.199
 Vibration    12          0.761              1.483              0.985
 Vibration    13          0.789              1.412              0.869
 Vibration    14          0.793              1.400              0.851
 Vibration    15          0.854              1.253              0.662
 Vibration    16          0.964              1.021              0.441

 Optimization completed.
    -- Stationary point found.
 Normal termination of Gaussian 16 at Tue Jun  1 00:12:15 2021.
