 Gaussian 16, Revision A.03,
 Gaussian 16:  ES64L-G16RevA.03 25-Dec-2016

 -----------------------------
 # opt freq b3lyp/6-31g(2df,p)
 -----------------------------

 -------------------
 Title Card Required
 -------------------
 Symbolic Z-matrix:
 Charge =  0 Multiplicity = 1

 SCF Done:  E(RB3LYP) =  -394.594078819     A.U. after   15 cycles
 SCF Done:  E(RB3LYP) =  -394.602426559     A.U. after   12 cycles
 SCF Done:  E(RB3LYP) =  -394.604128131     A.U. after   12 cycles
 SCF Done:  E(RB3LYP) =  -394.607057955     A.U. after   13 cycles
 SCF Done:  E(RB3LYP) =  -394.610701287     A.U. after   14 cycles
 SCF Done:  E(RB3LYP) =  -394.611897830     A.U. after   14 cycles
 SCF Done:  E(RB3LYP) =  -394.615015887     A.U. after   13 cycles
 SCF Done:  E(RB3LYP) =  -394.615999045     A.U. after   12 cycles
 SCF Done:  E(RB3LYP) =  -394.616182504     A.U. after   11 cycles
 SCF Done:  E(RB3LYP) =  -394.616657234     A.U. after   11 cycles
 SCF Done:  E(RB3LYP) =  -394.619224830     A.U. after   11 cycles
 SCF Done:  E(RB3LYP) =  -394.619594997     A.U. after   11 cycles
 SCF Done:  E(RB3LYP) =  -394.619622729     A.U. after   11 cycles
 SCF Done:  E(RB3LYP) =  -394.619682947     A.U. after   11 cycles
 SCF Done:  E(RB3LYP) =  -394.619694034     A.U. after    9 cycles
 SCF Done:  E(RB3LYP) =  -394.619708452     A.U. after   10 cycles
 SCF Done:  E(RB3LYP) =  -394.619709537     A.U. after    8 cycles
 SCF Done:  E(RB3LYP) =  -394.619709882     A.U. after    8 cycles
 SCF Done:  E(RB3LYP) =  -394.619709942     A.U. after    7 cycles
 Optimization completed.
    -- Stationary point found.
 Normal termination of Gaussian 16 at Tue Jun  1 08:08:36 2021.

 ----------------------------------------------------------------------
 #N Geom=AllCheck Guess=TCheck SCRF=Check GenChk RB3LYP/6-31G(2df,p) Fr
 eq
 ----------------------------------------------------------------------

 Structure from the checkpoint file:  "CNdNNpCpNCN.chk"
 -------------------
 Title Card Required
 -------------------
 Charge =  0 Multiplicity = 1

                         Standard orientation:
 ---------------------------------------------------------------------
 Center     Atomic      Atomic             Coordinates (Angstroms)
 Number     Number       Type             X           Y           Z
 ---------------------------------------------------------------------
      1          6           0       -3.165368   -0.990151    0.177057
      2          7           0       -2.131276    0.038330    0.170774
      3          7           0       -1.071273   -0.382400   -0.349283
      4          7           0       -0.100239    0.547770   -0.437630
      5          6           0       -0.245378    1.834305    0.236502
      6          7           0        1.155591   -0.005335   -0.677602
      7          6           0        1.975161   -0.238682    0.513780
      8          7           0        3.230469   -0.796615    0.044705
      9          1           0       -3.517969   -1.133755    1.204913
     10          1           0       -2.808407   -1.943625   -0.228615
     11          1           0       -4.022794   -0.641801   -0.411031
     12          1           0       -1.141772    2.336220   -0.132235
     13          1           0        0.637118    2.435648    0.010345
     14          1           0       -0.354764    1.723064    1.323722
     15          1           0        1.665076    0.571783   -1.339611
     16          1           0        1.380893   -0.888466    1.176318
     17          1           0        2.209015    0.681770    1.075019
     18          1           0        3.080915   -1.739326   -0.300892
     19          1           0        3.903301   -0.846598    0.801284
 ---------------------------------------------------------------------

 SCF Done:  E(RB3LYP) =  -394.619709942     A.U. after    1 cycles

 The electronic state is 1-A.
 Alpha  occ. eigenvalues --  -14.38951 -14.38614 -14.34748 -14.33365 -14.31736
 Alpha  occ. eigenvalues --  -10.23534 -10.21021 -10.19025  -1.06395  -0.96415
 Alpha  occ. eigenvalues --   -0.89062  -0.81090  -0.74194  -0.68395  -0.63975
 Alpha  occ. eigenvalues --   -0.55987  -0.52075  -0.51061  -0.48333  -0.46742
 Alpha  occ. eigenvalues --   -0.44249  -0.42612  -0.41856  -0.41165  -0.40172
 Alpha  occ. eigenvalues --   -0.39194  -0.35188  -0.34483  -0.25823  -0.24428
 Alpha  occ. eigenvalues --   -0.22327  -0.21878
 Alpha virt. eigenvalues --    0.00310   0.07970   0.09449   0.12792   0.13330
 Alpha virt. eigenvalues --    0.13957   0.14690   0.16134   0.16714   0.17032
 Alpha virt. eigenvalues --    0.17862   0.18417   0.18813   0.20775   0.22174

 Mulliken charges:
               1
     1  C   -0.289157
     2  N   -0.177064
     3  N   -0.053199
     4  N    0.016817
     5  C   -0.321492
     6  N   -0.237462
     7  C   -0.078318
     8  N   -0.510469
     9  H    0.120120
    10  H    0.116427
    11  H    0.122475
    12  H    0.150874
    13  H    0.119788
    14  H    0.127746
    15  H    0.232572
    16  H    0.102223
    17  H    0.087542
    18  H    0.238088
    19  H    0.232489
 Sum of Mulliken charges =   0.00000

 Dipole moment (field-independent basis, Debye):
    X=              1.5292    Y=              0.4220    Z=              1.3523  Tot=              2.0845
 Quadrupole moment (field-independent basis, Debye-Ang):
   XX=            -45.5140   YY=            -45.5679   ZZ=            -48.8913
   XY=             -0.2530   XZ=              3.3417   YZ=             -2.1323

  Exact polarizability: 105.170   7.003  67.627  -3.494   1.012  55.762
 Approx polarizability: 137.940   8.956  93.422 -12.182   1.384  86.371

                      1                      2                      3
                      A                      A                      A
 Frequencies --     58.8113                93.7014               132.7425
 Red. masses --      3.7907                 2.4607                 1.7117
 Frc consts  --      0.0077                 0.0127                 0.0178
 IR Inten    --      4.1447                 2.3446                 2.2417

                      4                      5                      6
                      A                      A                      A
 Frequencies --    156.5586               165.0492               227.5611
 Red. masses --      1.2150                 1.2286                 3.2030
 Frc consts  --      0.0175                 0.0197                 0.0977
 IR Inten    --      1.1077                 1.6011                 9.2331

                      7                      8                      9
                      A                      A                      A
 Frequencies --    251.2873               281.5602               322.2691
 Red. masses --      1.9964                 1.3728                 3.6888
 Frc consts  --      0.0743                 0.0641                 0.2257
 IR Inten    --     18.7152                25.7308                 3.9624

                     10                     11                     12
                      A                      A                      A
 Frequencies --    385.0628               407.6000               452.1965
 Red. masses --      4.4817                 2.8471                 5.6671
 Frc consts  --      0.3915                 0.2787                 0.6828
 IR Inten    --      1.4556                 3.9327                17.6377

                     13                     14                     15
                      A                      A                      A
 Frequencies --    531.1047               673.4461               763.2869
 Red. masses --      3.1406                 3.5735                 1.6410
 Frc consts  --      0.5219                 0.9549                 0.5633
 IR Inten    --     16.7049                14.2652                78.2759

                     16                     17                     18
                      A                      A                      A
 Frequencies --    842.7469               890.8891               967.5577
 Red. masses --      1.2796                 3.0048                 1.5771
 Frc consts  --      0.5354                 1.4051                 0.8699
 IR Inten    --    167.4543                 8.8506                16.9658

                     19                     20                     21
                      A                      A                      A
 Frequencies --   1047.0277              1074.5548              1097.4165
 Red. masses --      3.5518                 1.8230                 2.2899
 Frc consts  --      2.2941                 1.2402                 1.6248
 IR Inten    --      4.4794                28.3763                12.1101

                     22                     23                     24
                      A                      A                      A
 Frequencies --   1114.7057              1119.0447              1149.0907
 Red. masses --      1.3448                 1.4655                 2.2830
 Frc consts  --      0.9846                 1.0813                 1.7761
 IR Inten    --      1.3029                21.5038                16.0422

                     25                     26                     27
                      A                      A                      A
 Frequencies --   1160.9325              1202.9218              1265.0149
 Red. masses --      2.0527                 1.3084                 4.5708
 Frc consts  --      1.6300                 1.1155                 4.3096
 IR Inten    --      8.4637                 9.8501                85.2343

                     28                     29                     30
                      A                      A                      A
 Frequencies --   1324.9485              1337.6794              1419.6129
 Red. masses --      1.5304                 2.4916                 1.2585
 Frc consts  --      1.5829                 2.6268                 1.4943
 IR Inten    --      2.5023                 7.3054                 3.7175

                     31                     32                     33
                      A                      A                      A
 Frequencies --   1423.7374              1437.0857              1463.5366
 Red. masses --      1.2340                 1.2257                 1.0584
 Frc consts  --      1.4737                 1.4914                 1.3357
 IR Inten    --     27.5306                 9.9099                 6.9525

                     34                     35                     36
                      A                      A                      A
 Frequencies --   1478.0012              1485.3677              1495.1758
 Red. masses --      1.0463                 1.0777                 1.1131
 Frc consts  --      1.3467                 1.4010                 1.4662
 IR Inten    --      4.2061                 4.3450                 9.5302

                     37                     38                     39
                      A                      A                      A
 Frequencies --   1515.0269              1535.1197              1587.9104
 Red. masses --      1.1670                 1.0890                 6.1522
 Frc consts  --      1.5782                 1.5120                 9.1398
 IR Inten    --     37.7501                 0.5318               112.0124

                     40                     41                     42
                      A                      A                      A
 Frequencies --   1646.2059              2953.3685              2983.5638
 Red. masses --      1.1009                 1.0558                 1.1046
 Frc consts  --      1.7577                 5.4257                 5.7935
 IR Inten    --     27.8790                56.4549                53.3125

                     43                     44                     45
                      A                      A                      A
 Frequencies --   3010.5850              3014.7502              3075.8364
 Red. masses --      1.0314                 1.0460                 1.1011
 Frc consts  --      5.5078                 5.6014                 6.1379
 IR Inten    --     70.5534                27.6249                24.0673

                     46                     47                     48
                      A                      A                      A
 Frequencies --   3093.9756              3100.6597              3144.8368
 Red. masses --      1.1047                 1.0857                 1.1047
 Frc consts  --      6.2308                 6.1500                 6.4372
 IR Inten    --     23.8379                18.2323                11.4011

                     49                     50                     51
                      A                      A                      A
 Frequencies --   3508.0692              3516.8421              3595.9327
 Red. masses --      1.0493                 1.0746                 1.0929
 Frc consts  --      7.6081                 7.8311                 8.3266
 IR Inten    --      0.6001                 1.1131                 1.8970

 - Thermochemistry -
 -------------------
 Temperature   298.150 Kelvin.  Pressure   1.00000 Atm.
 Atom     1 has atomic number  6 and mass  12.00000

 Molecular mass:   117.10145 amu.
 Principal axes and moments of inertia in atomic units:
                           1         2         3
     Eigenvalues --   418.768841819.580882067.25906
           X            0.99997   0.00728   0.00376
           Y           -0.00729   0.99997   0.00189
           Z           -0.00375  -0.00192   0.99999
 This molecule is an asymmetric top.
 Rotational symmetry number  1.
 Rotational temperatures (Kelvin)      0.20683     0.04760     0.04190
 Rotational constants (GHZ):           4.30964     0.99184     0.87301
 Zero-point vibrational energy     430547.8 (Joules/Mol)
                                  102.90339 (Kcal/Mol)
 Warning -- explicit consideration of  13 degrees of freedom as
           vibrations may cause significant error
 Vibrational temperatures:     84.62   134.82   190.99   225.25   237.47
          (Kelvin)            327.41   361.55   405.10   463.67   554.02
                              586.45   650.61   764.14   968.94  1098.20
                             1212.52  1281.79  1392.10  1506.44  1546.04
                             1578.94  1603.81  1610.06  1653.29  1670.32
                             1730.74  1820.07  1906.31  1924.62  2042.51
                             2048.44  2067.65  2105.70  2126.51  2137.11
                             2151.22  2179.79  2208.69  2284.65  2368.52
                             4249.24  4292.68  4331.56  4337.55  4425.44
                             4451.54  4461.16  4524.72  5047.33  5059.95
                             5173.75

 Zero-point correction=                           0.163987 (Hartree/Particle)
 Thermal correction to Energy=                    0.173890
 Thermal correction to Enthalpy=                  0.174835
 Thermal correction to Gibbs Free Energy=         0.128958
 Sum of electronic and zero-point Energies=           -394.455723
 Sum of electronic and thermal Energies=              -394.445820
 Sum of electronic and thermal Enthalpies=            -394.444875
 Sum of electronic and thermal Free Energies=         -394.490752

                     E (Thermal)             CV                S
                      KCal/Mol        Cal/Mol-Kelvin    Cal/Mol-Kelvin
 Total                  109.118             34.487             96.556
 Electronic               0.000              0.000              0.000
 Translational            0.889              2.981             40.189
 Rotational               0.889              2.981             28.845
 Vibrational            107.340             28.526             27.522
 Vibration     1          0.596              1.974              4.497
 Vibration     2          0.603              1.954              3.581
 Vibration     3          0.613              1.921              2.906
 Vibration     4          0.620              1.895              2.591
 Vibration     5          0.623              1.885              2.491
 Vibration     6          0.651              1.799              1.898
 Vibration     7          0.663              1.761              1.722
 Vibration     8          0.681              1.708              1.524
 Vibration     9          0.707              1.631              1.299
 Vibration    10          0.754              1.502              1.019
 Vibration    11          0.772              1.454              0.935
 Vibration    12          0.811              1.356              0.789
 Vibration    13          0.886              1.181              0.585

 Optimization completed.
    -- Stationary point found.
 Normal termination of Gaussian 16 at Tue Jun  1 08:30:57 2021.
