 Gaussian 16, Revision A.03,
 Gaussian 16:  ES64L-G16RevA.03 25-Dec-2016

 -----------------------------
 # opt freq b3lyp/6-31g(2df,p)
 -----------------------------

 -------------------
 Title Card Required
 -------------------
 Symbolic Z-matrix:
 Charge =  0 Multiplicity = 1

 SCF Done:  E(RB3LYP) =  -433.919795420     A.U. after   14 cycles
 SCF Done:  E(RB3LYP) =  -433.925934855     A.U. after   13 cycles
 SCF Done:  E(RB3LYP) =  -433.934081690     A.U. after   14 cycles
 SCF Done:  E(RB3LYP) =  -433.937596400     A.U. after   14 cycles
 SCF Done:  E(RB3LYP) =  -433.940898011     A.U. after   14 cycles
 SCF Done:  E(RB3LYP) =  -433.945231992     A.U. after   13 cycles
 SCF Done:  E(RB3LYP) =  -433.954026457     A.U. after   14 cycles
 SCF Done:  E(RB3LYP) =  -433.957046257     A.U. after   13 cycles
 SCF Done:  E(RB3LYP) =  -433.958806158     A.U. after   13 cycles
 SCF Done:  E(RB3LYP) =  -433.960901182     A.U. after   13 cycles
 SCF Done:  E(RB3LYP) =  -433.967234324     A.U. after   12 cycles
 SCF Done:  E(RB3LYP) =  -433.967403276     A.U. after   10 cycles
 SCF Done:  E(RB3LYP) =  -433.967456385     A.U. after   11 cycles
 SCF Done:  E(RB3LYP) =  -433.967467148     A.U. after    9 cycles
 SCF Done:  E(RB3LYP) =  -433.967472278     A.U. after    9 cycles
 SCF Done:  E(RB3LYP) =  -433.967473382     A.U. after    9 cycles
 SCF Done:  E(RB3LYP) =  -433.967474300     A.U. after    8 cycles
 SCF Done:  E(RB3LYP) =  -433.967474426     A.U. after    7 cycles
 SCF Done:  E(RB3LYP) =  -433.967474458     A.U. after    6 cycles
 Optimization completed.
    -- Stationary point found.
 Normal termination of Gaussian 16 at Mon May 31 22:47:27 2021.

 ----------------------------------------------------------------------
 #N Geom=AllCheck Guess=TCheck SCRF=Check GenChk RB3LYP/6-31G(2df,p) Fr
 eq
 ----------------------------------------------------------------------

 Structure from the checkpoint file:  "CNdNNpCNpCCN.chk"
 -------------------
 Title Card Required
 -------------------
 Charge =  0 Multiplicity = 1

                         Standard orientation:
 ---------------------------------------------------------------------
 Center     Atomic      Atomic             Coordinates (Angstroms)
 Number     Number       Type             X           Y           Z
 ---------------------------------------------------------------------
      1          6           0       -3.071937   -1.327465    0.391771
      2          7           0       -2.107410   -0.279168    0.081062
      3          7           0       -1.008218   -0.759443   -0.291879
      4          7           0       -0.091716    0.143113   -0.671667
      5          6           0       -0.371224    1.565632   -0.610207
      6          7           0       -0.327639    2.079041    0.762805
      7          6           0        1.263355   -0.364679   -0.787917
      8          6           0        2.063635   -0.317366    0.522274
      9          7           0        3.420979   -0.810689    0.276283
     10          1           0       -3.432592   -1.190771    1.417987
     11          1           0       -2.644824   -2.330803    0.281804
     12          1           0       -3.940449   -1.228429   -0.270456
     13          1           0       -1.341622    1.713339   -1.103035
     14          1           0        0.402924    2.071585   -1.194324
     15          1           0       -1.159795    1.743046    1.240972
     16          1           0       -0.396049    3.093044    0.737931
     17          1           0        1.794056    0.208385   -1.555024
     18          1           0        1.186279   -1.399251   -1.138131
     19          1           0        1.502137   -0.875520    1.289829
     20          1           0        2.121128    0.718343    0.869220
     21          1           0        3.403835   -1.817400    0.136975
     22          1           0        4.000025   -0.652278    1.094497
 ---------------------------------------------------------------------

 SCF Done:  E(RB3LYP) =  -433.967474458     A.U. after    1 cycles

 The electronic state is 1-A.
 Alpha  occ. eigenvalues --  -14.39163 -14.36589 -14.33583 -14.30695 -14.30527
 Alpha  occ. eigenvalues --  -10.23565 -10.20915 -10.19640 -10.19321  -1.05501
 Alpha  occ. eigenvalues --   -0.91972  -0.87519  -0.86265  -0.75051  -0.71098
 Alpha  occ. eigenvalues --   -0.66315  -0.61010  -0.54637  -0.51110  -0.49067
 Alpha  occ. eigenvalues --   -0.48429  -0.46726  -0.45291  -0.43229  -0.42833
 Alpha  occ. eigenvalues --   -0.41231  -0.39720  -0.38943  -0.37898  -0.35312
 Alpha  occ. eigenvalues --   -0.34704  -0.33944  -0.24348  -0.23686  -0.22556
 Alpha  occ. eigenvalues --   -0.21719
 Alpha virt. eigenvalues --   -0.00206   0.08519   0.09565   0.11214   0.13027
 Alpha virt. eigenvalues --    0.13255   0.15114   0.16194   0.16480   0.17172
 Alpha virt. eigenvalues --    0.17772   0.18067   0.18746   0.19523   0.19971

 Mulliken charges:
               1
     1  C   -0.291064
     2  N   -0.187252
     3  N   -0.089716
     4  N    0.056749
     5  C   -0.128124
     6  N   -0.503778
     7  C   -0.137822
     8  C   -0.150425
     9  N   -0.510082
    10  H    0.119600
    11  H    0.114678
    12  H    0.122369
    13  H    0.115811
    14  H    0.106641
    15  H    0.242101
    16  H    0.225200
    17  H    0.113689
    18  H    0.112874
    19  H    0.088885
    20  H    0.126426
    21  H    0.224334
    22  H    0.228907
 Sum of Mulliken charges =  -0.00000

 Dipole moment (field-independent basis, Debye):
    X=             -0.0518    Y=              0.3968    Z=              0.4456  Tot=              0.5989
 Quadrupole moment (field-independent basis, Debye-Ang):
   XX=            -54.8348   YY=            -49.2521   ZZ=            -54.9483
   XY=             -2.8596   XZ=              1.8142   YZ=             -1.8431

  Exact polarizability: 110.611   7.120  82.384  -7.038  -0.730  66.470
 Approx polarizability: 149.426   9.134 113.781 -16.903  -0.847 100.228

                      1                      2                      3
                      A                      A                      A
 Frequencies --     51.2189                88.8916                98.4095
 Red. masses --      3.1424                 3.6449                 2.1611
 Frc consts  --      0.0049                 0.0170                 0.0123
 IR Inten    --      1.1280                 0.9479                 7.2423

                      4                      5                      6
                      A                      A                      A
 Frequencies --    112.0047               147.4412               214.5008
 Red. masses --      3.3205                 1.0581                 2.8166
 Frc consts  --      0.0245                 0.0136                 0.0764
 IR Inten    --      0.7059                 0.0048                 6.6674

                      7                      8                      9
                      A                      A                      A
 Frequencies --    230.7645               244.1753               270.3165
 Red. masses --      1.6469                 1.3605                 1.2951
 Frc consts  --      0.0517                 0.0478                 0.0558
 IR Inten    --     18.8122                12.1039                45.5009

                     10                     11                     12
                      A                      A                      A
 Frequencies --    297.4904               339.6746               374.3348
 Red. masses --      3.1383                 4.5422                 3.0132
 Frc consts  --      0.1636                 0.3088                 0.2488
 IR Inten    --     11.7113                11.6035                 0.2596

                     13                     14                     15
                      A                      A                      A
 Frequencies --    396.6236               484.4847               567.6327
 Red. masses --      3.0724                 3.7646                 3.9963
 Frc consts  --      0.2848                 0.5206                 0.7587
 IR Inten    --      0.7143                28.3940                 6.7927

                     16                     17                     18
                      A                      A                      A
 Frequencies --    667.7861               786.0797               848.2167
 Red. masses --      3.5022                 1.1786                 1.9048
 Frc consts  --      0.9202                 0.4291                 0.8074
 IR Inten    --     17.4645                13.2058                84.8750

                     19                     20                     21
                      A                      A                      A
 Frequencies --    857.0910               906.0692               966.8708
 Red. masses --      1.3516                 1.6352                 2.0923
 Frc consts  --      0.5850                 0.7910                 1.1524
 IR Inten    --    114.7698                67.3111                 2.4027

                     22                     23                     24
                      A                      A                      A
 Frequencies --   1008.0561              1038.1995              1052.7909
 Red. masses --      1.9785                 3.6080                 2.2506
 Frc consts  --      1.1846                 2.2913                 1.4697
 IR Inten    --     31.0547                 7.5743                12.8421

                     25                     26                     27
                      A                      A                      A
 Frequencies --   1073.9854              1100.7821              1116.3196
 Red. masses --      2.8795                 2.1534                 1.3471
 Frc consts  --      1.9569                 1.5374                 0.9891
 IR Inten    --     15.3716                23.6088                 0.3637

                     28                     29                     30
                      A                      A                      A
 Frequencies --   1130.7902              1182.8352              1189.9450
 Red. masses --      1.6492                 1.3879                 1.9458
 Frc consts  --      1.2424                 1.1440                 1.6233
 IR Inten    --     26.3019                12.3785                70.2967

                     31                     32                     33
                      A                      A                      A
 Frequencies --   1278.0988              1315.2621              1320.9050
 Red. masses --      1.5910                 1.6500                 1.3738
 Frc consts  --      1.5313                 1.6818                 1.4123
 IR Inten    --     18.5907                19.4849                20.4168

                     34                     35                     36
                      A                      A                      A
 Frequencies --   1362.3982              1373.2993              1397.0077
 Red. masses --      1.3910                 1.4528                 1.6000
 Frc consts  --      1.5212                 1.6143                 1.8398
 IR Inten    --     30.0486                50.7643                75.1810

                     37                     38                     39
                      A                      A                      A
 Frequencies --   1426.1880              1427.9807              1442.8071
 Red. masses --      1.3497                 1.4520                 1.2462
 Frc consts  --      1.6175                 1.7445                 1.5284
 IR Inten    --      1.8863                 0.9863                16.2537

                     40                     41                     42
                      A                      A                      A
 Frequencies --   1470.6139              1477.1702              1480.4279
 Red. masses --      1.0854                 1.0603                 1.1082
 Frc consts  --      1.3831                 1.3631                 1.4310
 IR Inten    --      8.3685                 1.5965                 4.2508

                     43                     44                     45
                      A                      A                      A
 Frequencies --   1487.9163              1512.0699              1578.6882
 Red. masses --      1.0799                 1.0884                 5.0486
 Frc consts  --      1.4087                 1.4661                 7.4134
 IR Inten    --      4.3957                 2.2629               138.8001

                     46                     47                     48
                      A                      A                      A
 Frequencies --   1642.9073              1660.7075              2964.7095
 Red. masses --      1.1113                 1.0893                 1.0722
 Frc consts  --      1.7673                 1.7701                 5.5527
 IR Inten    --     29.8859                19.3053                48.3224

                     49                     50                     51
                      A                      A                      A
 Frequencies --   3008.8924              3009.5206              3045.0481
 Red. masses --      1.0538                 1.0413                 1.0586
 Frc consts  --      5.6211                 5.5569                 5.7831
 IR Inten    --     55.5298                57.2887                37.8919

                     52                     53                     54
                      A                      A                      A
 Frequencies --   3073.0836              3081.5331              3085.6890
 Red. masses --      1.1013                 1.0949                 1.0954
 Frc consts  --      6.1275                 6.1260                 6.1453
 IR Inten    --     25.2116                 3.0210                21.0178

                     55                     56                     57
                      A                      A                      A
 Frequencies --   3092.2817              3103.5716              3481.1424
 Red. masses --      1.1046                 1.1022                 1.0488
 Frc consts  --      6.2232                 6.2551                 7.4886
 IR Inten    --     23.8579                32.5943                 3.3213

                     58                     59                     60
                      A                      A                      A
 Frequencies --   3489.0510              3563.0204              3568.6160
 Red. masses --      1.0502                 1.0921                 1.0913
 Frc consts  --      7.5324                 8.1683                 8.1884
 IR Inten    --      0.8751                 2.0274                 0.1428

 - Thermochemistry -
 -------------------
 Temperature   298.150 Kelvin.  Pressure   1.00000 Atm.
 Atom     1 has atomic number  6 and mass  12.00000

 Molecular mass:   131.11710 amu.
 Principal axes and moments of inertia in atomic units:
                           1         2         3
     Eigenvalues --   772.086481973.152992401.41325
           X            1.00000   0.00148  -0.00171
           Y           -0.00151   0.99984  -0.01767
           Z            0.00168   0.01767   0.99984
 This molecule is an asymmetric top.
 Rotational symmetry number  1.
 Warning -- assumption of classical behavior for rotation
           may cause significant error
 Rotational temperatures (Kelvin)      0.11218     0.04390     0.03607
 Rotational constants (GHZ):           2.33749     0.91465     0.75153
 Zero-point vibrational energy     508798.0 (Joules/Mol)
                                  121.60565 (Kcal/Mol)
 Warning -- explicit consideration of  15 degrees of freedom as
           vibrations may cause significant error
 Vibrational temperatures:     73.69   127.90   141.59   161.15   212.13
          (Kelvin)            308.62   332.02   351.31   388.93   428.02
                              488.72   538.58   570.65   697.07   816.70
                              960.80  1130.99  1220.39  1233.16  1303.63
                             1391.11  1450.37  1493.74  1514.73  1545.23
                             1583.78  1606.13  1626.95  1701.84  1712.07
                             1838.90  1892.37  1900.49  1960.19  1975.87
                             2009.98  2051.97  2054.55  2075.88  2115.89
                             2125.32  2130.01  2140.78  2175.53  2271.38
                             2363.78  2389.39  4265.56  4329.12  4330.03
                             4381.15  4421.48  4433.64  4439.62  4449.10
                             4465.35  5008.59  5019.97  5126.39  5134.44

 Zero-point correction=                           0.193791 (Hartree/Particle)
 Thermal correction to Energy=                    0.204949
 Thermal correction to Enthalpy=                  0.205893
 Thermal correction to Gibbs Free Energy=         0.156853
 Sum of electronic and zero-point Energies=           -433.773684
 Sum of electronic and thermal Energies=              -433.762526
 Sum of electronic and thermal Enthalpies=            -433.761582
 Sum of electronic and thermal Free Energies=         -433.810622

                     E (Thermal)             CV                S
                      KCal/Mol        Cal/Mol-Kelvin    Cal/Mol-Kelvin
 Total                  128.607             39.240            103.214
 Electronic               0.000              0.000              0.000
 Translational            0.889              2.981             40.526
 Rotational               0.889              2.981             29.682
 Vibrational            126.830             33.279             33.006
 Vibration     1          0.595              1.977              4.770
 Vibration     2          0.602              1.957              3.684
 Vibration     3          0.604              1.950              3.486
 Vibration     4          0.607              1.940              3.234
 Vibration     5          0.617              1.905              2.705
 Vibration     6          0.644              1.819              2.005
 Vibration     7          0.652              1.794              1.873
 Vibration     8          0.660              1.772              1.772
 Vibration     9          0.674              1.728              1.594
 Vibration    10          0.691              1.678              1.431
 Vibration    11          0.720              1.596              1.214
 Vibration    12          0.745              1.525              1.062
 Vibration    13          0.763              1.477              0.975
 Vibration    14          0.841              1.284              0.698
 Vibration    15          0.924              1.101              0.509

 Optimization completed.
    -- Stationary point found.
 Normal termination of Gaussian 16 at Mon May 31 23:18:16 2021.
