 Gaussian 16, Revision A.03,
 Gaussian 16:  ES64L-G16RevA.03 25-Dec-2016

 -----------------------------
 # opt freq b3lyp/6-31g(2df,p)
 -----------------------------

 -------------------
 Title Card Required
 -------------------
 Symbolic Z-matrix:
 Charge =  0 Multiplicity = 1

 SCF Done:  E(RB3LYP) =  -417.924740721     A.U. after   14 cycles
 SCF Done:  E(RB3LYP) =  -417.929076233     A.U. after   13 cycles
 SCF Done:  E(RB3LYP) =  -417.930757538     A.U. after   13 cycles
 SCF Done:  E(RB3LYP) =  -417.931713259     A.U. after   13 cycles
 SCF Done:  E(RB3LYP) =  -417.932016326     A.U. after   13 cycles
 SCF Done:  E(RB3LYP) =  -417.932266540     A.U. after   12 cycles
 SCF Done:  E(RB3LYP) =  -417.932405333     A.U. after   12 cycles
 SCF Done:  E(RB3LYP) =  -417.932649094     A.U. after   12 cycles
 SCF Done:  E(RB3LYP) =  -417.932226202     A.U. after   13 cycles
 SCF Done:  E(RB3LYP) =  -417.933586183     A.U. after   11 cycles
 SCF Done:  E(RB3LYP) =  -417.934536161     A.U. after   12 cycles
 SCF Done:  E(RB3LYP) =  -417.934532878     A.U. after   12 cycles
 SCF Done:  E(RB3LYP) =  -417.934704982     A.U. after   12 cycles
 SCF Done:  E(RB3LYP) =  -417.934762853     A.U. after   10 cycles
 SCF Done:  E(RB3LYP) =  -417.934768833     A.U. after    9 cycles
 SCF Done:  E(RB3LYP) =  -417.934769441     A.U. after    7 cycles
 SCF Done:  E(RB3LYP) =  -417.934769563     A.U. after    7 cycles
 SCF Done:  E(RB3LYP) =  -417.934769607     A.U. after    7 cycles
 Optimization completed.
    -- Stationary point found.
 Normal termination of Gaussian 16 at Mon May 31 18:56:09 2021.

 ----------------------------------------------------------------------
 #N Geom=AllCheck Guess=TCheck SCRF=Check GenChk RB3LYP/6-31G(2df,p) Fr
 eq
 ----------------------------------------------------------------------

 Structure from the checkpoint file:  "CNdNNCpCppCpNC.chk"
 -------------------
 Title Card Required
 -------------------
 Charge =  0 Multiplicity = 1

                         Standard orientation:
 ---------------------------------------------------------------------
 Center     Atomic      Atomic             Coordinates (Angstroms)
 Number     Number       Type             X           Y           Z
 ---------------------------------------------------------------------
      1          6           0        3.793432    0.065662   -0.058416
      2          7           0        2.539308   -0.671304    0.044732
      3          7           0        1.557793    0.091717    0.173605
      4          7           0        0.389640   -0.555831    0.343499
      5          6           0       -0.847863    0.154832   -0.017623
      6          6           0       -0.886146    1.494956    0.736247
      7          6           0       -0.923364    0.382082   -1.537179
      8          7           0       -1.885162   -0.792862    0.405359
      9          6           0       -3.265686   -0.478946    0.056562
     10          1           0        4.449542   -0.227438    0.769693
     11          1           0        3.644571    1.151318   -0.040875
     12          1           0        4.299072   -0.224167   -0.986678
     13          1           0        0.402242   -1.542365    0.086769
     14          1           0       -0.054559    2.136391    0.437676
     15          1           0       -0.809757    1.321843    1.813979
     16          1           0       -1.822146    2.020530    0.528074
     17          1           0       -0.030809    0.921543   -1.862940
     18          1           0       -1.799118    0.973597   -1.818615
     19          1           0       -0.965642   -0.576571   -2.062817
     20          1           0       -1.804457   -0.907270    1.411180
     21          1           0       -3.415287   -0.567582   -1.023164
     22          1           0       -3.610156    0.522281    0.364424
     23          1           0       -3.916788   -1.215666    0.535372
 ---------------------------------------------------------------------

 SCF Done:  E(RB3LYP) =  -417.934769607     A.U. after    1 cycles

 The electronic state is 1-A.
 Alpha  occ. eigenvalues --  -14.39272 -14.35385 -14.34000 -14.31804 -10.25222
 Alpha  occ. eigenvalues --  -10.20477 -10.19373 -10.17444 -10.17129  -1.05268
 Alpha  occ. eigenvalues --   -0.93281  -0.87144  -0.76461  -0.71284  -0.69280
 Alpha  occ. eigenvalues --   -0.67162  -0.60199  -0.56531  -0.51672  -0.48408
 Alpha  occ. eigenvalues --   -0.46412  -0.45628  -0.43812  -0.42192  -0.41433
 Alpha  occ. eigenvalues --   -0.40204  -0.39353  -0.38104  -0.37128  -0.36822
 Alpha  occ. eigenvalues --   -0.36168  -0.34625  -0.34120  -0.23358  -0.22934
 Alpha  occ. eigenvalues --   -0.22329
 Alpha virt. eigenvalues --   -0.00549   0.07884   0.11278   0.11914   0.13136
 Alpha virt. eigenvalues --    0.13597   0.14238   0.14962   0.16064   0.16758
 Alpha virt. eigenvalues --    0.17549   0.17742   0.18743   0.19361   0.19706

 Mulliken charges:
               1
     1  C   -0.290122
     2  N   -0.160728
     3  N   -0.064156
     4  N   -0.216569
     5  C    0.282153
     6  C   -0.400106
     7  C   -0.400567
     8  N   -0.309384
     9  C   -0.326040
    10  H    0.125818
    11  H    0.114260
    12  H    0.123946
    13  H    0.224208
    14  H    0.135403
    15  H    0.112374
    16  H    0.112095
    17  H    0.130150
    18  H    0.116704
    19  H    0.119816
    20  H    0.218191
    21  H    0.128980
    22  H    0.100647
    23  H    0.122927
 Sum of Mulliken charges =  -0.00000

 Dipole moment (field-independent basis, Debye):
    X=             -1.4480    Y=              0.7039    Z=             -0.0740  Tot=              1.6118
 Quadrupole moment (field-independent basis, Debye-Ang):
   XX=            -51.8418   YY=            -58.3318   ZZ=            -55.1071
   XY=              1.3579   XZ=             -1.5668   YZ=             -0.6285

  Exact polarizability: 127.904   0.374  74.390  -1.813   0.107  70.580
 Approx polarizability: 161.778  -3.305 112.578  -5.177  -0.920 102.689

                      1                      2                      3
                      A                      A                      A
 Frequencies --     60.2983               107.3338               116.6509
 Red. masses --      2.9529                 2.7192                 1.7796
 Frc consts  --      0.0063                 0.0185                 0.0143
 IR Inten    --      0.4402                 3.2761                 1.1141

                      4                      5                      6
                      A                      A                      A
 Frequencies --    138.6451               196.6985               205.2502
 Red. masses --      1.6139                 2.1883                 1.0957
 Frc consts  --      0.0183                 0.0499                 0.0272
 IR Inten    --      0.8682                 1.9867                 0.7519

                      7                      8                      9
                      A                      A                      A
 Frequencies --    233.4242               257.9254               292.7035
 Red. masses --      1.2623                 1.8024                 1.3086
 Frc consts  --      0.0405                 0.0706                 0.0661
 IR Inten    --      0.5706                 0.5726                 1.0074

                     10                     11                     12
                      A                      A                      A
 Frequencies --    308.3721               340.9634               367.5333
 Red. masses --      2.8382                 2.7407                 3.4320
 Frc consts  --      0.1590                 0.1877                 0.2731
 IR Inten    --      9.5304                 8.6326                 2.5009

                     13                     14                     15
                      A                      A                      A
 Frequencies --    387.2107               409.0432               484.6072
 Red. masses --      2.8007                 2.8156                 2.5268
 Frc consts  --      0.2474                 0.2776                 0.3496
 IR Inten    --      4.6298                 9.5315                 4.3244

                     16                     17                     18
                      A                      A                      A
 Frequencies --    565.2282               627.3389               729.4894
 Red. masses --      3.0762                 3.3427                 1.5312
 Frc consts  --      0.5790                 0.7751                 0.4801
 IR Inten    --     40.3509                 4.0023               110.2726

                     19                     20                     21
                      A                      A                      A
 Frequencies --    760.8977               806.8692               906.4975
 Red. masses --      2.5837                 1.4523                 1.9549
 Frc consts  --      0.8814                 0.5571                 0.9465
 IR Inten    --     12.9425                76.8988                 2.1490

                     22                     23                     24
                      A                      A                      A
 Frequencies --    926.7542               989.1904              1009.0369
 Red. masses --      1.5356                 2.1721                 1.3215
 Frc consts  --      0.7771                 1.2523                 0.7928
 IR Inten    --      1.7408                 0.9417                 0.8060

                     25                     26                     27
                      A                      A                      A
 Frequencies --   1053.1178              1099.4888              1111.5221
 Red. masses --      1.8803                 2.2288                 1.3763
 Frc consts  --      1.2287                 1.5875                 1.0018
 IR Inten    --      4.2946                13.1717                 1.3947

                     28                     29                     30
                      A                      A                      A
 Frequencies --   1117.5620              1151.0426              1159.5140
 Red. masses --      1.9133                 1.8684                 1.4469
 Frc consts  --      1.4079                 1.4585                 1.1462
 IR Inten    --     23.4562                 5.2152                21.4343

                     31                     32                     33
                      A                      A                      A
 Frequencies --   1216.5168              1227.2101              1262.4186
 Red. masses --      3.0873                 2.6593                 3.4087
 Frc consts  --      2.6920                 2.3597                 3.2007
 IR Inten    --     83.9394               233.5173                 9.5708

                     34                     35                     36
                      A                      A                      A
 Frequencies --   1296.1966              1389.4268              1404.0261
 Red. masses --      3.4246                 1.2488                 1.2628
 Frc consts  --      3.3900                 1.4204                 1.4667
 IR Inten    --     28.5466                16.2786                14.6680

                     37                     38                     39
                      A                      A                      A
 Frequencies --   1422.7484              1440.5877              1459.7717
 Red. masses --      1.2271                 1.4809                 1.1511
 Frc consts  --      1.4635                 1.8107                 1.4452
 IR Inten    --     17.0628                39.5313                 0.3133

                     40                     41                     42
                      A                      A                      A
 Frequencies --   1468.6493              1476.1339              1479.9966
 Red. masses --      1.1128                 1.0458                 1.0665
 Frc consts  --      1.4142                 1.3426                 1.3763
 IR Inten    --     12.3571                 2.9622                 3.3499

                     43                     44                     45
                      A                      A                      A
 Frequencies --   1486.8162              1491.7692              1498.0794
 Red. masses --      1.0825                 1.0981                 1.0573
 Frc consts  --      1.4099                 1.4397                 1.3980
 IR Inten    --      4.1499                 2.2024                 2.2627

                     46                     47                     48
                      A                      A                      A
 Frequencies --   1504.9674              1511.9600              1524.5138
 Red. masses --      1.0745                 1.1015                 1.0724
 Frc consts  --      1.4339                 1.4836                 1.4685
 IR Inten    --      5.0400                 4.8795                19.4502

                     49                     50                     51
                      A                      A                      A
 Frequencies --   1611.2083              2965.8445              3011.2221
 Red. masses --      6.7177                 1.0577                 1.0311
 Frc consts  --     10.2748                 5.4817                 5.5086
 IR Inten    --    110.9706                69.7206                57.2009

                     52                     53                     54
                      A                      A                      A
 Frequencies --   3041.1919              3047.0045              3074.0023
 Red. masses --      1.0350                 1.0361                 1.0745
 Frc consts  --      5.6398                 5.6678                 5.9822
 IR Inten    --     16.5244                11.3254                36.6536

                     55                     56                     57
                      A                      A                      A
 Frequencies --   3078.0239              3094.6829              3110.6754
 Red. masses --      1.1011                 1.1047                 1.1023
 Frc consts  --      6.1463                 6.2334                 6.2845
 IR Inten    --     22.0867                24.3058                26.1194

                     58                     59                     60
                      A                      A                      A
 Frequencies --   3115.5305              3119.3504              3127.7058
 Red. masses --      1.1022                 1.1014                 1.1017
 Frc consts  --      6.3035                 6.3141                 6.3498
 IR Inten    --      3.2896                42.6824                 7.6014

                     61                     62                     63
                      A                      A                      A
 Frequencies --   3135.0795              3467.9377              3512.5614
 Red. masses --      1.1004                 1.0737                 1.0735
 Frc consts  --      6.3723                 7.6083                 7.8039
 IR Inten    --     25.1288                 2.9646                 0.1770

 - Thermochemistry -
 -------------------
 Temperature   298.150 Kelvin.  Pressure   1.00000 Atm.
 Atom     1 has atomic number  6 and mass  12.00000

 Molecular mass:   130.12185 amu.
 Principal axes and moments of inertia in atomic units:
                           1         2         3
     Eigenvalues --   463.464482385.880292426.15880
           X            0.99999   0.00337  -0.00060
           Y           -0.00332   0.99779   0.06644
           Z            0.00082  -0.06643   0.99779
 This molecule is an asymmetric top.
 Rotational symmetry number  1.
 Warning -- assumption of classical behavior for rotation
           may cause significant error
 Rotational temperatures (Kelvin)      0.18688     0.03630     0.03570
 Rotational constants (GHZ):           3.89402     0.75643     0.74387
 Zero-point vibrational energy     532302.4 (Joules/Mol)
                                  127.22334 (Kcal/Mol)
 Warning -- explicit consideration of  16 degrees of freedom as
           vibrations may cause significant error
 Vibrational temperatures:     86.76   154.43   167.83   199.48   283.01
          (Kelvin)            295.31   335.85   371.10   421.14   443.68
                              490.57   528.80   557.11   588.52   697.24
                              813.24   902.60  1049.57  1094.76  1160.90
                             1304.25  1333.39  1423.22  1451.78  1515.20
                             1581.92  1599.23  1607.92  1656.09  1668.28
                             1750.30  1765.68  1816.34  1864.94  1999.08
                             2020.08  2047.02  2072.68  2100.29  2113.06
                             2123.83  2129.38  2139.20  2146.32  2155.40
                             2165.31  2175.37  2193.44  2318.17  4267.19
                             4332.48  4375.60  4383.96  4422.80  4428.59
                             4452.56  4475.57  4482.55  4488.05  4500.07
                             4510.68  4989.59  5053.79

 Zero-point correction=                           0.202743 (Hartree/Particle)
 Thermal correction to Energy=                    0.214041
 Thermal correction to Enthalpy=                  0.214985
 Thermal correction to Gibbs Free Energy=         0.166553
 Sum of electronic and zero-point Energies=           -417.732026
 Sum of electronic and thermal Energies=              -417.720729
 Sum of electronic and thermal Enthalpies=            -417.719784
 Sum of electronic and thermal Free Energies=         -417.768217

                     E (Thermal)             CV                S
                      KCal/Mol        Cal/Mol-Kelvin    Cal/Mol-Kelvin
 Total                  134.313             41.122            101.935
 Electronic               0.000              0.000              0.000
 Translational            0.889              2.981             40.503
 Rotational               0.889              2.981             29.374
 Vibrational            132.535             35.160             32.058
 Vibration     1          0.597              1.973              4.447
 Vibration     2          0.606              1.943              3.317
 Vibration     3          0.608              1.936              3.155
 Vibration     4          0.614              1.915              2.822
 Vibration     5          0.636              1.844              2.164
 Vibration     6          0.640              1.832              2.086
 Vibration     7          0.654              1.790              1.852
 Vibration     8          0.667              1.749              1.676
 Vibration     9          0.688              1.687              1.458
 Vibration    10          0.698              1.658              1.371
 Vibration    11          0.720              1.594              1.208
 Vibration    12          0.740              1.539              1.090
 Vibration    13          0.756              1.497              1.011
 Vibration    14          0.773              1.451              0.930
 Vibration    15          0.841              1.284              0.698
 Vibration    16          0.921              1.106              0.513

 Optimization completed.
    -- Stationary point found.
 Normal termination of Gaussian 16 at Mon May 31 19:29:37 2021.
