 Gaussian 16, Revision A.03,
 Gaussian 16:  ES64L-G16RevA.03 25-Dec-2016

 -----------------------------
 # opt freq b3lyp/6-31g(2df,p)
 -----------------------------

 -------------------
 Title Card Required
 -------------------
 Symbolic Z-matrix:
 Charge =  0 Multiplicity = 1

 SCF Done:  E(RB3LYP) =  -525.059038354     A.U. after   20 cycles
 SCF Done:  E(RB3LYP) =  -525.083791331     A.U. after   14 cycles
 SCF Done:  E(RB3LYP) =  -525.100233669     A.U. after   13 cycles
 SCF Done:  E(RB3LYP) =  -525.112131606     A.U. after   14 cycles
 SCF Done:  E(RB3LYP) =  -525.117164185     A.U. after   13 cycles
 SCF Done:  E(RB3LYP) =  -525.119717289     A.U. after   13 cycles
 SCF Done:  E(RB3LYP) =  -525.120601559     A.U. after   13 cycles
 SCF Done:  E(RB3LYP) =  -525.121449660     A.U. after   14 cycles
 SCF Done:  E(RB3LYP) =  -525.122108917     A.U. after   13 cycles
 SCF Done:  E(RB3LYP) =  -525.123264189     A.U. after   14 cycles
 SCF Done:  E(RB3LYP) =  -525.130355009     A.U. after   12 cycles
 SCF Done:  E(RB3LYP) =  -525.130365358     A.U. after   12 cycles
 SCF Done:  E(RB3LYP) =  -525.130367162     A.U. after    9 cycles
 SCF Done:  E(RB3LYP) =  -525.130367712     A.U. after    9 cycles
 SCF Done:  E(RB3LYP) =  -525.130368231     A.U. after    9 cycles
 SCF Done:  E(RB3LYP) =  -525.130368736     A.U. after    9 cycles
 SCF Done:  E(RB3LYP) =  -525.130369214     A.U. after    9 cycles
 SCF Done:  E(RB3LYP) =  -525.130369474     A.U. after    9 cycles
 SCF Done:  E(RB3LYP) =  -525.130369625     A.U. after    9 cycles
 Optimization completed.
    -- Stationary point found.
 Normal termination of Gaussian 16 at Tue Jun  1 03:54:56 2021.

 ----------------------------------------------------------------------
 #N Geom=AllCheck Guess=TCheck SCRF=Check GenChk RB3LYP/6-31G(2df,p) Fr
 eq
 ----------------------------------------------------------------------

 Structure from the checkpoint file:  "CNNCpNpNNCNdO.chk"
 -------------------
 Title Card Required
 -------------------
 Charge =  0 Multiplicity = 1

                         Standard orientation:
 ---------------------------------------------------------------------
 Center     Atomic      Atomic             Coordinates (Angstroms)
 Number     Number       Type             X           Y           Z
 ---------------------------------------------------------------------
      1          6           0       -3.916389   -0.419605   -0.878615
      2          7           0       -3.216891    0.453480    0.058894
      3          7           0       -2.138529   -0.171131    0.748420
      4          6           0       -0.871017    0.061070    0.035945
      5          7           0       -0.501493    1.457398    0.000412
      6          7           0        0.154290   -0.690954    0.747338
      7          7           0        1.341477   -0.931083    0.004289
      8          6           0        2.341169    0.093846    0.256839
      9          7           0        3.499299   -0.187064   -0.637529
     10          8           0        4.533806    0.281822   -0.237454
     11          1           0       -4.785787    0.111393   -1.278222
     12          1           0       -4.266764   -1.363246   -0.423791
     13          1           0       -3.260717   -0.670444   -1.718194
     14          1           0       -3.862330    0.789418    0.764342
     15          1           0       -2.313013   -1.176535    0.827558
     16          1           0       -0.944027   -0.266324   -1.024027
     17          1           0       -0.488449    1.794082    0.961534
     18          1           0       -1.241564    1.963372   -0.479691
     19          1           0       -0.208046   -1.594575    1.032410
     20          1           0        1.145621   -0.959054   -0.997459
     21          1           0        2.655654    0.078987    1.304316
     22          1           0        2.009318    1.111964   -0.006922
 ---------------------------------------------------------------------

 SCF Done:  E(RB3LYP) =  -525.130369625     A.U. after    1 cycles

 The electronic state is 1-A.
 Alpha  occ. eigenvalues --  -19.19037 -14.43360 -14.35583 -14.34954 -14.34836
 Alpha  occ. eigenvalues --  -14.34534 -14.31085 -10.26496 -10.22375 -10.21788
 Alpha  occ. eigenvalues --   -1.14860  -1.00036  -0.96903  -0.88818  -0.82580
 Alpha  occ. eigenvalues --   -0.79033  -0.71770  -0.67158  -0.61750  -0.60200
 Alpha  occ. eigenvalues --   -0.53582  -0.51894  -0.51135  -0.49465  -0.48037
 Alpha  occ. eigenvalues --   -0.47464  -0.45961  -0.44596  -0.42907  -0.41799
 Alpha  occ. eigenvalues --   -0.41401  -0.40398  -0.38801  -0.37962  -0.26453
 Alpha  occ. eigenvalues --   -0.26206  -0.25498  -0.24513  -0.23352  -0.21078
 Alpha virt. eigenvalues --   -0.07381   0.06191   0.08438   0.09529   0.10625
 Alpha virt. eigenvalues --    0.11996   0.12965   0.14346   0.14689   0.15431
 Alpha virt. eigenvalues --    0.16734   0.17048   0.17469   0.19948   0.20344

 Mulliken charges:
               1
     1  C   -0.315612
     2  N   -0.257465
     3  N   -0.308859
     4  C    0.132864
     5  N   -0.469561
     6  N   -0.284042
     7  N   -0.303633
     8  C   -0.029487
     9  N    0.019885
    10  O   -0.207448
    11  H    0.128581
    12  H    0.100984
    13  H    0.132811
    14  H    0.236563
    15  H    0.198217
    16  H    0.048614
    17  H    0.228240
    18  H    0.233779
    19  H    0.227684
    20  H    0.217686
    21  H    0.128074
    22  H    0.142125
 Sum of Mulliken charges =   0.00000

 Dipole moment (field-independent basis, Debye):
    X=             -5.4175    Y=             -0.5475    Z=              0.0586  Tot=              5.4454
 Quadrupole moment (field-independent basis, Debye-Ang):
   XX=            -64.9285   YY=            -57.9514   ZZ=            -60.6207
   XY=              2.2196   XZ=              2.8417   YZ=              0.4539

  Exact polarizability: 115.710   2.639  71.010   1.499   0.444  67.586
 Approx polarizability: 139.428   3.403 108.255   1.597   0.031 105.335

                      1                      2                      3
                      A                      A                      A
 Frequencies --     24.2813                48.2375                57.4187
 Red. masses --      5.0786                 2.8162                 5.8604
 Frc consts  --      0.0018                 0.0039                 0.0114
 IR Inten    --      0.4997                 2.0440                 0.3009

                      4                      5                      6
                      A                      A                      A
 Frequencies --     77.1693               123.9967               134.4951
 Red. masses --      4.9568                 3.6122                 2.6082
 Frc consts  --      0.0174                 0.0327                 0.0278
 IR Inten    --      0.0205                 1.7683                 4.2486

                      7                      8                      9
                      A                      A                      A
 Frequencies --    194.5196               227.3631               270.9748
 Red. masses --      1.8974                 2.5145                 2.4376
 Frc consts  --      0.0423                 0.0766                 0.1055
 IR Inten    --      0.5138                 2.8133                 3.6567

                     10                     11                     12
                      A                      A                      A
 Frequencies --    314.0752               330.9503               347.6629
 Red. masses --      3.5426                 2.5880                 1.1773
 Frc consts  --      0.2059                 0.1670                 0.0838
 IR Inten    --      7.9009                 8.4263                31.8924

                     13                     14                     15
                      A                      A                      A
 Frequencies --    425.9983               525.0506               541.9070
 Red. masses --      2.6573                 3.6789                 3.0162
 Frc consts  --      0.2841                 0.5976                 0.5219
 IR Inten    --      0.8764                10.3518                 1.8075

                     16                     17                     18
                      A                      A                      A
 Frequencies --    554.1125               578.6913               758.8675
 Red. masses --      3.0409                 2.8618                 1.8237
 Frc consts  --      0.5501                 0.5647                 0.6188
 IR Inten    --     15.9593                32.4354               110.3062

                     19                     20                     21
                      A                      A                      A
 Frequencies --    790.0947               851.6261               866.3782
 Red. masses --      1.7768                 2.2604                 1.3835
 Frc consts  --      0.6535                 0.9659                 0.6119
 IR Inten    --     52.0252                20.2317                70.4726

                     22                     23                     24
                      A                      A                      A
 Frequencies --    887.9999               933.9039               961.1658
 Red. masses --      1.5326                 2.0288                 2.4321
 Frc consts  --      0.7121                 1.0425                 1.3238
 IR Inten    --     16.7011               171.9496                15.7236

                     25                     26                     27
                      A                      A                      A
 Frequencies --    987.7763               997.1633              1051.9569
 Red. masses --      1.9288                 2.2603                 2.3554
 Frc consts  --      1.1088                 1.3242                 1.5357
 IR Inten    --      7.8593                 4.3628                85.7933

                     28                     29                     30
                      A                      A                      A
 Frequencies --   1124.9024              1141.3293              1151.7138
 Red. masses --      2.7217                 1.9874                 1.6999
 Frc consts  --      2.0292                 1.5253                 1.3285
 IR Inten    --      9.9165                46.9066                 5.0958

                     31                     32                     33
                      A                      A                      A
 Frequencies --   1181.5876              1200.1765              1226.1231
 Red. masses --      2.3594                 1.9922                 1.7202
 Frc consts  --      1.9408                 1.6907                 1.5237
 IR Inten    --     15.6906                12.4625                 7.2102

                     34                     35                     36
                      A                      A                      A
 Frequencies --   1233.4150              1270.9791              1328.1056
 Red. masses --      1.9010                 1.8344                 1.3369
 Frc consts  --      1.7039                 1.7459                 1.3894
 IR Inten    --      7.9548                15.4781                10.7755

                     37                     38                     39
                      A                      A                      A
 Frequencies --   1356.7141              1431.1231              1448.2381
 Red. masses --      1.2533                 1.2354                 1.1933
 Frc consts  --      1.3592                 1.4908                 1.4746
 IR Inten    --     41.2239                 7.2662                 2.7910

                     40                     41                     42
                      A                      A                      A
 Frequencies --   1465.6160              1470.5519              1486.1676
 Red. masses --      1.1570                 1.1033                 1.0790
 Frc consts  --      1.4643                 1.4057                 1.4042
 IR Inten    --     35.1425                 0.7580                10.7168

                     43                     44                     45
                      A                      A                      A
 Frequencies --   1493.0848              1511.4814              1517.5020
 Red. masses --      1.0956                 1.1899                 1.1037
 Frc consts  --      1.4390                 1.6017                 1.4975
 IR Inten    --      3.8851                10.4489                13.5599

                     46                     47                     48
                      A                      A                      A
 Frequencies --   1536.2683              1652.4538              1678.6741
 Red. masses --      1.1788                 1.1020                14.2150
 Frc consts  --      1.6392                 1.7730                23.6010
 IR Inten    --      2.2205                28.9314                99.4559

                     49                     50                     51
                      A                      A                      A
 Frequencies --   2855.6424              2949.5278              2973.3409
 Red. masses --      1.0791                 1.0574                 1.0644
 Frc consts  --      5.1848                 5.4201                 5.5441
 IR Inten    --     87.3462                75.1447                46.5958

                     52                     53                     54
                      A                      A                      A
 Frequencies --   3068.0310              3091.6592              3110.6069
 Red. masses --      1.0745                 1.0950                 1.1029
 Frc consts  --      5.9590                 6.1664                 6.2877
 IR Inten    --     28.5748                10.3302                23.4497

                     55                     56                     57
                      A                      A                      A
 Frequencies --   3378.2710              3422.3408              3473.9775
 Red. masses --      1.0726                 1.0727                 1.0492
 Frc consts  --      7.2123                 7.4022                 7.4602
 IR Inten    --     15.5574                 4.2619                 1.4826

                     58                     59                     60
                      A                      A                      A
 Frequencies --   3514.4404              3525.2235              3559.3231
 Red. masses --      1.0749                 1.0756                 1.0905
 Frc consts  --      7.8225                 7.8752                 8.1399
 IR Inten    --      3.5165                 1.5963                 4.6128

 - Thermochemistry -
 -------------------
 Temperature   298.150 Kelvin.  Pressure   1.00000 Atm.
 Atom     1 has atomic number  6 and mass  12.00000

 Molecular mass:   148.10726 amu.
 Principal axes and moments of inertia in atomic units:
                           1         2         3
     Eigenvalues --   415.960164027.380824127.50935
           X            0.99992   0.00495   0.01174
           Y           -0.00566   0.99806   0.06194
           Z           -0.01141  -0.06201   0.99801
 This molecule is an asymmetric top.
 Rotational symmetry number  1.
 Rotational temperatures (Kelvin)      0.20823     0.02151     0.02098
 Rotational constants (GHZ):           4.33874     0.44812     0.43725
 Zero-point vibrational energy     488629.2 (Joules/Mol)
                                  116.78519 (Kcal/Mol)
 Warning -- explicit consideration of  17 degrees of freedom as
           vibrations may cause significant error
 Vibrational temperatures:     34.94    69.40    82.61   111.03   178.40
          (Kelvin)            193.51   279.87   327.12   389.87   451.88
                              476.16   500.21   612.92   755.43   779.68
                              797.24   832.61  1091.84  1136.77  1225.30
                             1246.52  1277.63  1343.68  1382.90  1421.19
                             1434.70  1513.53  1618.48  1642.12  1657.06
                             1700.04  1726.79  1764.12  1774.61  1828.66
                             1910.85  1952.01  2059.07  2083.69  2108.69
                             2115.80  2138.26  2148.22  2174.68  2183.35
                             2210.35  2377.51  2415.24  4108.63  4243.71
                             4277.97  4414.21  4448.21  4475.47  4860.58
                             4923.99  4998.28  5056.50  5072.01  5121.07

 Zero-point correction=                           0.186109 (Hartree/Particle)
 Thermal correction to Energy=                    0.198134
 Thermal correction to Enthalpy=                  0.199078
 Thermal correction to Gibbs Free Energy=         0.146233
 Sum of electronic and zero-point Energies=           -524.944261
 Sum of electronic and thermal Energies=              -524.932236
 Sum of electronic and thermal Enthalpies=            -524.931292
 Sum of electronic and thermal Free Energies=         -524.984136

                     E (Thermal)             CV                S
                      KCal/Mol        Cal/Mol-Kelvin    Cal/Mol-Kelvin
 Total                  124.331             41.653            111.222
 Electronic               0.000              0.000              0.000
 Translational            0.889              2.981             40.889
 Rotational               0.889              2.981             30.315
 Vibrational            122.553             35.691             40.018
 Vibration     1          0.593              1.985              6.249
 Vibration     2          0.595              1.978              4.888
 Vibration     3          0.596              1.975              4.544
 Vibration     4          0.599              1.964              3.962
 Vibration     5          0.610              1.929              3.037
 Vibration     6          0.613              1.919              2.881
 Vibration     7          0.635              1.847              2.184
 Vibration     8          0.651              1.799              1.900
 Vibration     9          0.675              1.727              1.590
 Vibration    10          0.702              1.647              1.341
 Vibration    11          0.713              1.614              1.255
 Vibration    12          0.725              1.580              1.177
 Vibration    13          0.788              1.414              0.872
 Vibration    14          0.880              1.195              0.598
 Vibration    15          0.897              1.157              0.561
 Vibration    16          0.910              1.131              0.536
 Vibration    17          0.935              1.077              0.488

 Optimization completed.
    -- Stationary point found.
 Normal termination of Gaussian 16 at Tue Jun  1 04:32:37 2021.
