 Gaussian 16, Revision A.03,
 Gaussian 16:  ES64L-G16RevA.03 25-Dec-2016

 -----------------------------
 # opt freq b3lyp/6-31g(2df,p)
 -----------------------------

 -------------------
 Title Card Required
 -------------------
 Symbolic Z-matrix:
 Charge =  0 Multiplicity = 1

 SCF Done:  E(RB3LYP) =  -510.081768071     A.U. after   15 cycles
 SCF Done:  E(RB3LYP) =  -510.115270903     A.U. after   14 cycles
 SCF Done:  E(RB3LYP) =  -510.118044491     A.U. after   14 cycles
 SCF Done:  E(RB3LYP) =  -510.121451031     A.U. after   14 cycles
 SCF Done:  E(RB3LYP) =  -510.122680777     A.U. after   13 cycles
 SCF Done:  E(RB3LYP) =  -510.123215189     A.U. after   13 cycles
 SCF Done:  E(RB3LYP) =  -510.123304015     A.U. after   11 cycles
 SCF Done:  E(RB3LYP) =  -510.123424978     A.U. after   12 cycles
 SCF Done:  E(RB3LYP) =  -510.123649999     A.U. after   13 cycles
 SCF Done:  E(RB3LYP) =  -510.123441117     A.U. after   13 cycles
 SCF Done:  E(RB3LYP) =  -510.127467295     A.U. after   11 cycles
 SCF Done:  E(RB3LYP) =  -510.127540201     A.U. after   11 cycles
 SCF Done:  E(RB3LYP) =  -510.127551804     A.U. after   10 cycles
 SCF Done:  E(RB3LYP) =  -510.127557143     A.U. after   10 cycles
 SCF Done:  E(RB3LYP) =  -510.127559898     A.U. after   10 cycles
 SCF Done:  E(RB3LYP) =  -510.127560417     A.U. after    8 cycles
 SCF Done:  E(RB3LYP) =  -510.127560620     A.U. after    8 cycles
 SCF Done:  E(RB3LYP) =  -510.127560676     A.U. after    7 cycles
 SCF Done:  E(RB3LYP) =  -510.127560693     A.U. after    7 cycles
 Optimization completed.
    -- Stationary point found.
 Normal termination of Gaussian 16 at Tue Jun  1 00:20:29 2021.

 ----------------------------------------------------------------------
 #N Geom=AllCheck Guess=TCheck SCRF=Check GenChk RB3LYP/6-31G(2df,p) Fr
 eq
 ----------------------------------------------------------------------

 Structure from the checkpoint file:  "CNNCCpdNpCNCdCdN.chk"
 -------------------
 Title Card Required
 -------------------
 Charge =  0 Multiplicity = 1

                         Standard orientation:
 ---------------------------------------------------------------------
 Center     Atomic      Atomic             Coordinates (Angstroms)
 Number     Number       Type             X           Y           Z
 ---------------------------------------------------------------------
      1          6           0        4.995780   -0.615537    0.405535
      2          7           0        3.953879    0.402451    0.281087
      3          7           0        2.685779   -0.271715   -0.019108
      4          6           0        1.603237    0.705750    0.054214
      5          6           0        0.276722    0.075029   -0.329800
      6          7           0        0.144187   -1.025807   -0.948519
      7          6           0       -0.953663    0.845799    0.096523
      8          7           0       -2.132615    0.399590   -0.621860
      9          6           0       -3.383185    0.709297   -0.041501
     10          6           0       -4.280320   -0.173507    0.342802
     11          7           0       -5.186900   -0.994955    0.493350
     12          1           0        5.965310   -0.113446    0.458357
     13          1           0        5.004582   -1.339891   -0.423198
     14          1           0        4.856199   -1.167244    1.342746
     15          1           0        4.153553    0.923140   -0.572214
     16          1           0        2.556496   -0.917789    0.758761
     17          1           0        1.817289    1.508596   -0.666301
     18          1           0        1.524677    1.199034    1.036808
     19          1           0        1.066889   -1.419070   -1.154110
     20          1           0       -0.785730    1.920944   -0.070890
     21          1           0       -1.044525    0.727567    1.193378
     22          1           0       -2.024394   -0.574238   -0.882749
     23          1           0       -3.621150    1.763639    0.071118
     24          1           0       -5.270932   -1.359178    1.447008
 ---------------------------------------------------------------------

 SCF Done:  E(RB3LYP) =  -510.127560693     A.U. after    1 cycles

 The electronic state is 1-A.
 Alpha  occ. eigenvalues --  -14.35622 -14.35243 -14.33621 -14.32119 -14.31134
 Alpha  occ. eigenvalues --  -10.23733 -10.22532 -10.22429 -10.21758 -10.21173
 Alpha  occ. eigenvalues --  -10.20442  -0.97733  -0.92919  -0.91237  -0.88881
 Alpha  occ. eigenvalues --   -0.81988  -0.74780  -0.70601  -0.66587  -0.65096
 Alpha  occ. eigenvalues --   -0.56799  -0.54402  -0.51380  -0.50271  -0.49664
 Alpha  occ. eigenvalues --   -0.47395  -0.46763  -0.44743  -0.43343  -0.42823
 Alpha  occ. eigenvalues --   -0.41136  -0.39691  -0.38633  -0.37124  -0.36193
 Alpha  occ. eigenvalues --   -0.32533  -0.32274  -0.30321  -0.27808  -0.26144
 Alpha  occ. eigenvalues --   -0.20835  -0.18467
 Alpha virt. eigenvalues --   -0.00037   0.00259   0.05568   0.06911   0.09072
 Alpha virt. eigenvalues --    0.09819   0.10952   0.11924   0.12953   0.14406
 Alpha virt. eigenvalues --    0.15086   0.15953   0.16249   0.16979   0.17266

 Mulliken charges:
               1
     1  C   -0.305969
     2  N   -0.262840
     3  N   -0.312404
     4  C   -0.188305
     5  C    0.282959
     6  N   -0.470779
     7  C   -0.197012
     8  N   -0.306263
     9  C   -0.172499
    10  C    0.294499
    11  N   -0.495712
    12  H    0.128045
    13  H    0.113133
    14  H    0.123470
    15  H    0.234015
    16  H    0.232005
    17  H    0.128645
    18  H    0.108280
    19  H    0.228397
    20  H    0.111319
    21  H    0.105519
    22  H    0.252599
    23  H    0.119629
    24  H    0.249270
 Sum of Mulliken charges =  -0.00000

 Dipole moment (field-independent basis, Debye):
    X=              3.8680    Y=              1.0164    Z=              2.3124  Tot=              4.6197
 Quadrupole moment (field-independent basis, Debye-Ang):
   XX=            -69.3046   YY=            -64.5599   ZZ=            -66.5229
   XY=             -3.4776   XZ=             -9.9479   YZ=             -4.3799

  Exact polarizability: 150.505  13.173  95.635  -9.040  -0.871  74.812
 Approx polarizability: 175.723  31.697 161.464 -15.415  -0.378 119.466

                      1                      2                      3
                      A                      A                      A
 Frequencies --     24.2376                39.8899                47.8240
 Red. masses --      4.7041                 2.9200                 3.8562
 Frc consts  --      0.0016                 0.0027                 0.0052
 IR Inten    --      0.2928                 4.4833                 1.0117

                      4                      5                      6
                      A                      A                      A
 Frequencies --     75.4665               100.7640               119.5205
 Red. masses --      2.9775                 3.3562                 3.1683
 Frc consts  --      0.0100                 0.0201                 0.0267
 IR Inten    --      2.4717                 0.4482                 1.4204

                      7                      8                      9
                      A                      A                      A
 Frequencies --    144.2265               202.7748               230.6324
 Red. masses --      2.1667                 3.0900                 3.8139
 Frc consts  --      0.0266                 0.0749                 0.1195
 IR Inten    --      8.3078                 5.8789                 2.3632

                     10                     11                     12
                      A                      A                      A
 Frequencies --    272.6843               280.4503               342.5616
 Red. masses --      1.2806                 4.7205                 3.3235
 Frc consts  --      0.0561                 0.2187                 0.2298
 IR Inten    --      1.4409                 3.9267                 4.6471

                     13                     14                     15
                      A                      A                      A
 Frequencies --    368.1337               412.5218               465.5665
 Red. masses --      3.9581                 3.1396                 2.3060
 Frc consts  --      0.3160                 0.3148                 0.2945
 IR Inten    --      8.1397                12.4893                 0.1420

                     16                     17                     18
                      A                      A                      A
 Frequencies --    491.5795               623.6983               652.6044
 Red. masses --      3.1478                 3.3943                 2.3287
 Frc consts  --      0.4482                 0.7779                 0.5843
 IR Inten    --      1.8160                34.7639                18.2277

                     19                     20                     21
                      A                      A                      A
 Frequencies --    695.5858               715.4234               825.0607
 Red. masses --      3.0327                 1.4594                 1.3115
 Frc consts  --      0.8645                 0.4401                 0.5260
 IR Inten    --     19.2904                45.0753                13.3773

                     22                     23                     24
                      A                      A                      A
 Frequencies --    871.8136               894.8522               899.1398
 Red. masses --      3.3120                 1.1173                 1.2058
 Frc consts  --      1.4832                 0.5271                 0.5743
 IR Inten    --      6.0428                67.4138                66.9658

                     25                     26                     27
                      A                      A                      A
 Frequencies --    927.0479               976.8988              1019.3600
 Red. masses --      2.1240                 1.5472                 2.4315
 Frc consts  --      1.0755                 0.8700                 1.4886
 IR Inten    --     25.6720                 3.5293                42.6183

                     28                     29                     30
                      A                      A                      A
 Frequencies --   1049.6959              1074.3884              1080.6805
 Red. masses --      1.5042                 1.9567                 2.3891
 Frc consts  --      0.9765                 1.3308                 1.6439
 IR Inten    --     33.7897               112.5133                12.8108

                     31                     32                     33
                      A                      A                      A
 Frequencies --   1094.7608              1121.9788              1126.4519
 Red. masses --      1.8231                 2.0504                 3.2331
 Frc consts  --      1.2874                 1.5208                 2.4171
 IR Inten    --     13.8329               155.4599                 6.6028

                     34                     35                     36
                      A                      A                      A
 Frequencies --   1144.2824              1174.4578              1193.7766
 Red. masses --      3.0448                 1.6267                 1.2460
 Frc consts  --      2.3490                 1.3220                 1.0462
 IR Inten    --     13.0912                 4.0588                18.3863

                     37                     38                     39
                      A                      A                      A
 Frequencies --   1229.1538              1241.4156              1283.0506
 Red. masses --      1.5893                 1.2461                 1.2972
 Frc consts  --      1.4147                 1.1315                 1.2582
 IR Inten    --     39.0137                 7.0133                69.2224

                     40                     41                     42
                      A                      A                      A
 Frequencies --   1307.6063              1345.3981              1395.2954
 Red. masses --      1.4121                 1.4153                 1.7163
 Frc consts  --      1.4226                 1.5094                 1.9686
 IR Inten    --      4.8494                10.5379                17.3696

                     43                     44                     45
                      A                      A                      A
 Frequencies --   1435.0107              1440.4131              1450.7960
 Red. masses --      1.4549                 1.4885                 1.2233
 Frc consts  --      1.7652                 1.8195                 1.5170
 IR Inten    --     41.6345                20.2507                 3.2884

                     46                     47                     48
                      A                      A                      A
 Frequencies --   1481.2947              1490.0042              1495.0742
 Red. masses --      1.0395                 1.0920                 1.1191
 Frc consts  --      1.3439                 1.4283                 1.4738
 IR Inten    --      7.1715                17.2709                 5.6098

                     49                     50                     51
                      A                      A                      A
 Frequencies --   1509.5603              1515.3722              1538.4282
 Red. masses --      1.4298                 1.0535                 1.1199
 Frc consts  --      1.9197                 1.4253                 1.5616
 IR Inten    --    153.7686                 4.6641                 0.9112

                     52                     53                     54
                      A                      A                      A
 Frequencies --   1736.2864              2108.4182              2919.1961
 Red. masses --      8.6711                10.2348                 1.0736
 Frc consts  --     15.4016                26.8068                 5.3904
 IR Inten    --     49.2151               189.4585                55.1320

                     55                     56                     57
                      A                      A                      A
 Frequencies --   2973.7257              2986.6438              2995.0232
 Red. masses --      1.0665                 1.0463                 1.0831
 Frc consts  --      5.5569                 5.4988                 5.7245
 IR Inten    --     51.8051                56.5948                37.9660

                     58                     59                     60
                      A                      A                      A
 Frequencies --   3019.4192              3060.5575              3115.3461
 Red. masses --      1.0918                 1.0912                 1.0985
 Frc consts  --      5.8644                 6.0224                 6.2818
 IR Inten    --     19.8402                33.9592                20.1061

                     61                     62                     63
                      A                      A                      A
 Frequencies --   3155.7456              3400.4354              3431.0679
 Red. masses --      1.0857                 1.0753                 1.0731
 Frc consts  --      6.3702                 7.3258                 7.4429
 IR Inten    --     15.1728                 5.4966                 9.9097

                     64                     65                     66
                      A                      A                      A
 Frequencies --   3448.5403              3467.7067              3545.8491
 Red. masses --      1.0743                 1.0746                 1.0744
 Frc consts  --      7.5276                 7.6133                 7.9590
 IR Inten    --      0.3926                 0.3880                53.3751

 - Thermochemistry -
 -------------------
 Temperature   298.150 Kelvin.  Pressure   1.00000 Atm.
 Atom     1 has atomic number  6 and mass  12.00000

 Molecular mass:   155.11710 amu.
 Principal axes and moments of inertia in atomic units:
                           1         2         3
     Eigenvalues --   419.922525925.021496075.97579
           X            0.99998  -0.00565  -0.00064
           Y            0.00563   0.99972  -0.02299
           Z            0.00077   0.02298   0.99974
 This molecule is an asymmetric top.
 Rotational symmetry number  1.
 Rotational temperatures (Kelvin)      0.20626     0.01462     0.01426
 Rotational constants (GHZ):           4.29780     0.30460     0.29703
 Zero-point vibrational energy     534148.3 (Joules/Mol)
                                  127.66451 (Kcal/Mol)
 Warning -- explicit consideration of  16 degrees of freedom as
           vibrations may cause significant error
 Vibrational temperatures:     34.87    57.39    68.81   108.58   144.98
          (Kelvin)            171.96   207.51   291.75   331.83   392.33
                              403.51   492.87   529.66   593.53   669.85
                              707.27   897.36   938.95  1000.79  1029.33
                             1187.08  1254.35  1287.49  1293.66  1333.82
                             1405.54  1466.63  1510.28  1545.81  1554.86
                             1575.12  1614.28  1620.71  1646.37  1689.78
                             1717.58  1768.48  1786.12  1846.02  1881.35
                             1935.73  2007.52  2064.66  2072.43  2087.37
                             2131.25  2143.78  2151.08  2171.92  2180.28
                             2213.46  2498.13  3033.54  4200.07  4278.53
                             4297.11  4309.17  4344.27  4403.46  4482.29
                             4540.41  4892.47  4936.54  4961.68  4989.26
                             5101.69

 Zero-point correction=                           0.203446 (Hartree/Particle)
 Thermal correction to Energy=                    0.216390
 Thermal correction to Enthalpy=                  0.217334
 Thermal correction to Gibbs Free Energy=         0.161883
 Sum of electronic and zero-point Energies=           -509.924114
 Sum of electronic and thermal Energies=              -509.911171
 Sum of electronic and thermal Enthalpies=            -509.910227
 Sum of electronic and thermal Free Energies=         -509.965677

                     E (Thermal)             CV                S
                      KCal/Mol        Cal/Mol-Kelvin    Cal/Mol-Kelvin
 Total                  135.787             44.882            116.705
 Electronic               0.000              0.000              0.000
 Translational            0.889              2.981             41.027
 Rotational               0.889              2.981             31.092
 Vibrational            134.009             38.920             44.587
 Vibration     1          0.593              1.985              6.253
 Vibration     2          0.594              1.981              5.265
 Vibration     3          0.595              1.978              4.905
 Vibration     4          0.599              1.965              4.005
 Vibration     5          0.604              1.949              3.439
 Vibration     6          0.609              1.933              3.108
 Vibration     7          0.616              1.909              2.747
 Vibration     8          0.639              1.836              2.108
 Vibration     9          0.652              1.794              1.874
 Vibration    10          0.676              1.724              1.579
 Vibration    11          0.680              1.710              1.531
 Vibration    12          0.722              1.590              1.200
 Vibration    13          0.741              1.538              1.088
 Vibration    14          0.776              1.443              0.918
 Vibration    15          0.823              1.326              0.750
 Vibration    16          0.847              1.269              0.680

                           ! Non-Optimized Parameters !
 Normal termination of Gaussian 16 at Tue Jun  1 00:57:41 2021.
