 Gaussian 16, Revision A.03,
 Gaussian 16:  ES64L-G16RevA.03 25-Dec-2016

 -----------------------------
 # opt freq b3lyp/6-31g(2df,p)
 -----------------------------

 -------------------
 Title Card Required
 -------------------
 Symbolic Z-matrix:
 Charge =  0 Multiplicity = 1

 SCF Done:  E(RB3LYP) =  -433.917401510     A.U. after   13 cycles
 SCF Done:  E(RB3LYP) =  -433.926105958     A.U. after   11 cycles
 SCF Done:  E(RB3LYP) =  -433.929080102     A.U. after   11 cycles
 SCF Done:  E(RB3LYP) =  -433.933079516     A.U. after   12 cycles
 SCF Done:  E(RB3LYP) =  -433.934410530     A.U. after   11 cycles
 SCF Done:  E(RB3LYP) =  -433.937392142     A.U. after   12 cycles
 SCF Done:  E(RB3LYP) =  -433.938962074     A.U. after   12 cycles
 SCF Done:  E(RB3LYP) =  -433.940149640     A.U. after   11 cycles
 SCF Done:  E(RB3LYP) =  -433.940579151     A.U. after   11 cycles
 SCF Done:  E(RB3LYP) =  -433.940644640     A.U. after   10 cycles
 SCF Done:  E(RB3LYP) =  -433.940679585     A.U. after   10 cycles
 SCF Done:  E(RB3LYP) =  -433.940701123     A.U. after   10 cycles
 SCF Done:  E(RB3LYP) =  -433.940716978     A.U. after   10 cycles
 SCF Done:  E(RB3LYP) =  -433.940721060     A.U. after    9 cycles
 SCF Done:  E(RB3LYP) =  -433.940723307     A.U. after    9 cycles
 SCF Done:  E(RB3LYP) =  -433.940723567     A.U. after    7 cycles
 SCF Done:  E(RB3LYP) =  -433.940723616     A.U. after    6 cycles
 Optimization completed.
    -- Stationary point found.
 Normal termination of Gaussian 16 at Tue Jun  1 06:17:33 2021.

 ----------------------------------------------------------------------
 #N Geom=AllCheck Guess=TCheck SCRF=Check GenChk RB3LYP/6-31G(2df,p) Fr
 eq
 ----------------------------------------------------------------------

 Structure from the checkpoint file:  "CNNCCNpNpCdN.chk"
 -------------------
 Title Card Required
 -------------------
 Charge =  0 Multiplicity = 1

                         Standard orientation:
 ---------------------------------------------------------------------
 Center     Atomic      Atomic             Coordinates (Angstroms)
 Number     Number       Type             X           Y           Z
 ---------------------------------------------------------------------
      1          6           0        4.328297   -0.129366    0.144395
      2          7           0        3.077200    0.219853   -0.526069
      3          7           0        1.964534   -0.343391    0.251623
      4          6           0        0.709099    0.125404   -0.333583
      5          6           0       -0.464564   -0.331425    0.537284
      6          7           0       -1.752921    0.085180    0.011524
      7          7           0       -2.108581    1.441895    0.103699
      8          6           0       -2.810345   -0.813494   -0.085755
      9          7           0       -4.044797   -0.574167   -0.253983
     10          1           0        5.160541    0.137084   -0.512729
     11          1           0        4.402006   -1.193981    0.413760
     12          1           0        4.428040    0.463272    1.061789
     13          1           0        3.052375   -0.314636   -1.393563
     14          1           0        2.055452    0.109706    1.161311
     15          1           0        0.600773   -0.323462   -1.328808
     16          1           0        0.698925    1.219348   -0.470792
     17          1           0       -0.333877    0.052016    1.565270
     18          1           0       -0.454334   -1.422931    0.602893
     19          1           0       -1.525268    1.988949   -0.521130
     20          1           0       -1.958120    1.780534    1.054342
     21          1           0       -2.461324   -1.847377   -0.033832
     22          1           0       -4.188164    0.439175   -0.280114
 ---------------------------------------------------------------------

 SCF Done:  E(RB3LYP) =  -433.940723616     A.U. after    1 cycles

 The electronic state is 1-A.
 Alpha  occ. eigenvalues --  -14.37459 -14.36158 -14.34767 -14.34623 -14.27476
 Alpha  occ. eigenvalues --  -10.23347 -10.22958 -10.21565 -10.20752  -1.00465
 Alpha  occ. eigenvalues --   -0.96808  -0.87060  -0.83521  -0.80179  -0.71637
 Alpha  occ. eigenvalues --   -0.65685  -0.62646  -0.59109  -0.52727  -0.51184
 Alpha  occ. eigenvalues --   -0.50374  -0.48993  -0.46950  -0.45662  -0.43820
 Alpha  occ. eigenvalues --   -0.39955  -0.39770  -0.39231  -0.37672  -0.37060
 Alpha  occ. eigenvalues --   -0.33407  -0.30831  -0.27964  -0.24979  -0.22114
 Alpha  occ. eigenvalues --   -0.20253
 Alpha virt. eigenvalues --    0.04232   0.06143   0.07488   0.09384   0.10276
 Alpha virt. eigenvalues --    0.10787   0.12693   0.13378   0.14441   0.15720
 Alpha virt. eigenvalues --    0.16972   0.17672   0.18205   0.19385   0.20095

 Mulliken charges:
               1
     1  C   -0.302630
     2  N   -0.270942
     3  N   -0.296949
     4  C   -0.106233
     5  C   -0.181475
     6  N   -0.052675
     7  N   -0.465703
     8  C    0.126968
     9  N   -0.490018
    10  H    0.124811
    11  H    0.111401
    12  H    0.119264
    13  H    0.231639
    14  H    0.222999
    15  H    0.111414
    16  H    0.082867
    17  H    0.088226
    18  H    0.131655
    19  H    0.253795
    20  H    0.237480
    21  H    0.104772
    22  H    0.219332
 Sum of Mulliken charges =  -0.00000

 Dipole moment (field-independent basis, Debye):
    X=              4.4613    Y=              1.6356    Z=              1.0876  Tot=              4.8745
 Quadrupole moment (field-independent basis, Debye-Ang):
   XX=            -74.2585   YY=            -54.7778   ZZ=            -52.6953
   XY=             -7.1259   XZ=             -3.0597   YZ=              2.1148

  Exact polarizability: 117.558  -0.275  73.227   3.693   1.169  64.635
 Approx polarizability: 142.922  -0.413 109.084   5.565   1.634  99.568

                      1                      2                      3
                      A                      A                      A
 Frequencies --     33.5635                39.3222                78.5921
 Red. masses --      3.1485                 3.2315                 3.0872
 Frc consts  --      0.0021                 0.0029                 0.0112
 IR Inten    --      2.4878                 3.9980                 0.9793

                      4                      5                      6
                      A                      A                      A
 Frequencies --     93.5924               118.9050               176.0349
 Red. masses --      2.5589                 2.5573                 2.9390
 Frc consts  --      0.0132                 0.0213                 0.0537
 IR Inten    --      3.2301                 1.7435                 3.5694

                      7                      8                      9
                      A                      A                      A
 Frequencies --    264.4711               271.3556               288.1964
 Red. masses --      3.1919                 1.2056                 1.5882
 Frc consts  --      0.1315                 0.0523                 0.0777
 IR Inten    --      0.2122                 0.8404                21.5382

                     10                     11                     12
                      A                      A                      A
 Frequencies --    306.5594               346.0404               381.6864
 Red. masses --      2.8111                 1.6605                 3.2958
 Frc consts  --      0.1557                 0.1171                 0.2829
 IR Inten    --      4.2918                11.3150                 4.4383

                     13                     14                     15
                      A                      A                      A
 Frequencies --    421.1284               508.2926               686.4600
 Red. masses --      2.5757                 3.2955                 3.3212
 Frc consts  --      0.2691                 0.5016                 0.9221
 IR Inten    --      4.3754                 1.5369                13.7949

                     16                     17                     18
                      A                      A                      A
 Frequencies --    800.0278               836.4094               867.0907
 Red. masses --      1.1774                 3.3980                 1.9296
 Frc consts  --      0.4440                 1.4006                 0.8548
 IR Inten    --      7.6239                44.8349                26.5072

                     19                     20                     21
                      A                      A                      A
 Frequencies --    883.6610               904.2423               920.4373
 Red. masses --      2.2366                 1.2347                 1.6223
 Frc consts  --      1.0290                 0.5948                 0.8098
 IR Inten    --      8.0657               144.0463                87.5174

                     22                     23                     24
                      A                      A                      A
 Frequencies --    983.6049              1063.4958              1069.1873
 Red. masses --      1.3850                 2.7746                 3.3597
 Frc consts  --      0.7895                 1.8490                 2.2629
 IR Inten    --      0.9190                 4.4785                17.7826

                     25                     26                     27
                      A                      A                      A
 Frequencies --   1094.4937              1104.0634              1121.8237
 Red. masses --      1.0970                 2.0407                 3.1305
 Frc consts  --      0.7743                 1.4656                 2.3212
 IR Inten    --     41.2683                42.9826                12.4162

                     28                     29                     30
                      A                      A                      A
 Frequencies --   1172.2297              1183.1895              1193.8340
 Red. masses --      1.4938                 1.5911                 1.7743
 Frc consts  --      1.2094                 1.3124                 1.4899
 IR Inten    --      4.1637                23.2377               155.4782

                     31                     32                     33
                      A                      A                      A
 Frequencies --   1252.3758              1282.3812              1307.0265
 Red. masses --      1.8999                 1.6677                 1.2345
 Frc consts  --      1.7557                 1.6158                 1.2425
 IR Inten    --     20.7259                32.2639                19.6684

                     34                     35                     36
                      A                      A                      A
 Frequencies --   1318.3594              1337.3269              1390.1846
 Red. masses --      1.2035                 1.3423                 2.0391
 Frc consts  --      1.2324                 1.4144                 2.3218
 IR Inten    --      6.1692                18.8803                42.9506

                     37                     38                     39
                      A                      A                      A
 Frequencies --   1413.7788              1435.9463              1441.0096
 Red. masses --      1.4723                 1.1999                 1.2223
 Frc consts  --      1.7338                 1.4577                 1.4954
 IR Inten    --     52.4570                 9.1694                 1.4185

                     40                     41                     42
                      A                      A                      A
 Frequencies --   1451.0923              1481.2555              1482.4019
 Red. masses --      1.2109                 1.0469                 1.0866
 Frc consts  --      1.5022                 1.3534                 1.4069
 IR Inten    --      9.2996                 5.5974                 3.5658

                     43                     44                     45
                      A                      A                      A
 Frequencies --   1515.6403              1520.3280              1541.7001
 Red. masses --      1.0488                 1.0866                 1.1201
 Frc consts  --      1.4195                 1.4797                 1.5685
 IR Inten    --     16.0413                 4.4455                 1.5160

                     46                     47                     48
                      A                      A                      A
 Frequencies --   1670.6813              1734.3353              2941.4596
 Red. masses --      1.3501                 3.3501                 1.0724
 Frc consts  --      2.2203                 5.9371                 5.4665
 IR Inten    --     30.7855               263.9048                65.2848

                     49                     50                     51
                      A                      A                      A
 Frequencies --   2965.0937              2986.6151              3045.7420
 Red. masses --      1.0681                 1.0455                 1.0905
 Frc consts  --      5.5326                 5.4943                 5.9602
 IR Inten    --     63.5294                63.2185                28.2444

                     52                     53                     54
                      A                      A                      A
 Frequencies --   3057.4139              3090.8295              3111.1957
 Red. masses --      1.0920                 1.0893                 1.0881
 Frc consts  --      6.0140                 6.1314                 6.2057
 IR Inten    --     36.2404                 6.2791                37.7964

                     55                     56                     57
                      A                      A                      A
 Frequencies --   3111.7973              3431.7318              3439.0021
 Red. masses --      1.0984                 1.0524                 1.0738
 Frc consts  --      6.2668                 7.3025                 7.4821
 IR Inten    --     21.7442                 3.2248                 0.2329

                     58                     59                     60
                      A                      A                      A
 Frequencies --   3444.8552              3461.6918              3546.9182
 Red. masses --      1.0709                 1.0747                 1.0894
 Frc consts  --      7.4874                 7.5875                 8.0747
 IR Inten    --      2.3840                 0.9173                 1.7697

 - Thermochemistry -
 -------------------
 Temperature   298.150 Kelvin.  Pressure   1.00000 Atm.
 Atom     1 has atomic number  6 and mass  12.00000

 Molecular mass:   131.11710 amu.
 Principal axes and moments of inertia in atomic units:
                           1         2         3
     Eigenvalues --   300.527293505.649003648.03489
           X            0.99998  -0.00628   0.00012
           Y            0.00628   0.99994   0.00902
           Z           -0.00018  -0.00902   0.99996
 This molecule is an asymmetric top.
 Rotational symmetry number  1.
 Rotational temperatures (Kelvin)      0.28821     0.02471     0.02374
 Rotational constants (GHZ):           6.00525     0.51481     0.49472
 Zero-point vibrational energy     510938.0 (Joules/Mol)
                                  122.11711 (Kcal/Mol)
 Warning -- explicit consideration of  14 degrees of freedom as
           vibrations may cause significant error
 Vibrational temperatures:     48.29    56.58   113.08   134.66   171.08
          (Kelvin)            253.27   380.51   390.42   414.65   441.07
                              497.87   549.16   605.91   731.32   987.66
                             1151.06  1203.41  1247.55  1271.39  1301.00
                             1324.30  1415.19  1530.13  1538.32  1574.73
                             1588.50  1614.05  1686.58  1702.35  1717.66
                             1801.89  1845.06  1880.52  1896.83  1924.12
                             2000.17  2034.11  2066.01  2073.29  2087.80
                             2131.20  2132.85  2180.67  2187.41  2218.16
                             2403.74  2495.32  4232.10  4266.11  4297.07
                             4382.14  4398.94  4447.01  4476.32  4477.18
                             4937.50  4947.96  4956.38  4980.60  5103.22

 Zero-point correction=                           0.194606 (Hartree/Particle)
 Thermal correction to Energy=                    0.205787
 Thermal correction to Enthalpy=                  0.206731
 Thermal correction to Gibbs Free Energy=         0.156315
 Sum of electronic and zero-point Energies=           -433.746118
 Sum of electronic and thermal Energies=              -433.734937
 Sum of electronic and thermal Enthalpies=            -433.733993
 Sum of electronic and thermal Free Energies=         -433.784408

                     E (Thermal)             CV                S
                      KCal/Mol        Cal/Mol-Kelvin    Cal/Mol-Kelvin
 Total                  129.133             38.509            106.109
 Electronic               0.000              0.000              0.000
 Translational            0.889              2.981             40.526
 Rotational               0.889              2.981             29.731
 Vibrational            127.356             32.548             35.852
 Vibration     1          0.594              1.983              5.607
 Vibration     2          0.594              1.981              5.293
 Vibration     3          0.600              1.964              3.926
 Vibration     4          0.603              1.954              3.584
 Vibration     5          0.609              1.934              3.118
 Vibration     6          0.628              1.872              2.370
 Vibration     7          0.671              1.738              1.632
 Vibration     8          0.675              1.726              1.588
 Vibration     9          0.685              1.696              1.485
 Vibration    10          0.697              1.661              1.381
 Vibration    11          0.724              1.583              1.184
 Vibration    12          0.751              1.509              1.032
 Vibration    13          0.784              1.424              0.888
 Vibration    14          0.863              1.232              0.638

                           ! Non-Optimized Parameters !
 Normal termination of Gaussian 16 at Tue Jun  1 06:45:14 2021.
