 Gaussian 16, Revision A.03,
 Gaussian 16:  ES64L-G16RevA.03 25-Dec-2016

 -----------------------------
 # opt freq b3lyp/6-31g(2df,p)
 -----------------------------

 -------------------
 Title Card Required
 -------------------
 Symbolic Z-matrix:
 Charge =  0 Multiplicity = 1

 SCF Done:  E(RB3LYP) =  -435.133292564     A.U. after   12 cycles
 SCF Done:  E(RB3LYP) =  -435.149368703     A.U. after   11 cycles
 SCF Done:  E(RB3LYP) =  -435.154513661     A.U. after   10 cycles
 SCF Done:  E(RB3LYP) =  -435.160019533     A.U. after   11 cycles
 SCF Done:  E(RB3LYP) =  -435.164662481     A.U. after   11 cycles
 SCF Done:  E(RB3LYP) =  -435.167841911     A.U. after   10 cycles
 SCF Done:  E(RB3LYP) =  -435.169837232     A.U. after   10 cycles
 SCF Done:  E(RB3LYP) =  -435.170286763     A.U. after   10 cycles
 SCF Done:  E(RB3LYP) =  -435.170531808     A.U. after   10 cycles
 SCF Done:  E(RB3LYP) =  -435.170626892     A.U. after   10 cycles
 SCF Done:  E(RB3LYP) =  -435.186311120     A.U. after   11 cycles
 SCF Done:  E(RB3LYP) =  -435.188143670     A.U. after   12 cycles
 SCF Done:  E(RB3LYP) =  -435.190108170     A.U. after   11 cycles
 SCF Done:  E(RB3LYP) =  -435.189473905     A.U. after   11 cycles
 SCF Done:  E(RB3LYP) =  -435.190538965     A.U. after   10 cycles
 SCF Done:  E(RB3LYP) =  -435.190583111     A.U. after    9 cycles
 SCF Done:  E(RB3LYP) =  -435.190597245     A.U. after    9 cycles
 SCF Done:  E(RB3LYP) =  -435.190599283     A.U. after    7 cycles
 SCF Done:  E(RB3LYP) =  -435.190599657     A.U. after    7 cycles
 Optimization completed.
    -- Stationary point found.
 Normal termination of Gaussian 16 at Tue Jun  1 09:25:40 2021.

 ----------------------------------------------------------------------
 #N Geom=AllCheck Guess=TCheck SCRF=Check GenChk RB3LYP/6-31G(2df,p) Fr
 eq
 ----------------------------------------------------------------------

 Structure from the checkpoint file:  "CNNCNCpNpNC.chk"
 -------------------
 Title Card Required
 -------------------
 Charge =  0 Multiplicity = 1

                         Standard orientation:
 ---------------------------------------------------------------------
 Center     Atomic      Atomic             Coordinates (Angstroms)
 Number     Number       Type             X           Y           Z
 ---------------------------------------------------------------------
      1          6           0        3.622358   -0.185898   -0.385054
      2          7           0        2.208022   -0.484201   -0.577839
      3          7           0        1.434863   -0.430833    0.620244
      4          6           0        0.860054    0.918503    0.800903
      5          7           0       -0.241046    1.224495   -0.078350
      6          6           0       -1.503358    0.527075    0.164701
      7          7           0       -2.628684    1.160814   -0.501637
      8          7           0       -1.452767   -0.859007   -0.282927
      9          6           0       -2.571473   -1.679023    0.172606
     10          1           0        4.151893   -0.338089   -1.330639
     11          1           0        4.104782   -0.812611    0.386803
     12          1           0        3.747993    0.862327   -0.095895
     13          1           0        2.100412   -1.415568   -0.962785
     14          1           0        2.012479   -0.668900    1.430313
     15          1           0        1.627800    1.694655    0.661863
     16          1           0        0.511653    0.972338    1.839428
     17          1           0        0.049097    1.084947   -1.043002
     18          1           0       -1.684993    0.612441    1.254726
     19          1           0       -2.510960    1.038850   -1.504936
     20          1           0       -2.600565    2.158220   -0.312224
     21          1           0       -0.573549   -1.243067    0.051220
     22          1           0       -3.503170   -1.304866   -0.256957
     23          1           0       -2.696168   -1.693481    1.270986
     24          1           0       -2.424916   -2.710009   -0.164277
 ---------------------------------------------------------------------

 SCF Done:  E(RB3LYP) =  -435.190599657     A.U. after    1 cycles

 The electronic state is 1-A.
 Alpha  occ. eigenvalues --  -14.34589 -14.34327 -14.30028 -14.29162 -14.28951
 Alpha  occ. eigenvalues --  -10.24090 -10.22743 -10.21060 -10.17968  -0.97549
 Alpha  occ. eigenvalues --   -0.93136  -0.85786  -0.83243  -0.78905  -0.68050
 Alpha  occ. eigenvalues --   -0.65868  -0.61743  -0.58871  -0.52354  -0.50401
 Alpha  occ. eigenvalues --   -0.48506  -0.47021  -0.45914  -0.43875  -0.42388
 Alpha  occ. eigenvalues --   -0.41261  -0.40391  -0.39014  -0.38581  -0.37099
 Alpha  occ. eigenvalues --   -0.35527  -0.34680  -0.25298  -0.24740  -0.23203
 Alpha  occ. eigenvalues --   -0.22037  -0.20984
 Alpha virt. eigenvalues --    0.07262   0.10430   0.11180   0.11325   0.12229
 Alpha virt. eigenvalues --    0.13259   0.14142   0.15485   0.16130   0.17473
 Alpha virt. eigenvalues --    0.17839   0.18172   0.19121   0.19979   0.20586

 Mulliken charges:
               1
     1  C   -0.311739
     2  N   -0.254468
     3  N   -0.281596
     4  C   -0.105452
     5  N   -0.271072
     6  C    0.078726
     7  N   -0.494602
     8  N   -0.287560
     9  C   -0.305292
    10  H    0.126153
    11  H    0.096706
    12  H    0.131206
    13  H    0.234031
    14  H    0.204472
    15  H    0.088888
    16  H    0.098796
    17  H    0.213653
    18  H    0.052587
    19  H    0.217864
    20  H    0.220786
    21  H    0.224591
    22  H    0.134499
    23  H    0.084826
    24  H    0.103997
 Sum of Mulliken charges =  -0.00000

 Dipole moment (field-independent basis, Debye):
    X=              3.1806    Y=             -0.4811    Z=              0.6173  Tot=              3.2755
 Quadrupole moment (field-independent basis, Debye-Ang):
   XX=            -56.0742   YY=            -55.4541   ZZ=            -54.3964
   XY=             -2.4183   XZ=              0.9971   YZ=             -0.4379

  Exact polarizability: 101.385  -0.408  79.944  -0.428   0.600  74.710
 Approx polarizability: 119.920  -1.886 111.609  -0.451   1.505 115.182

                      1                      2                      3
                      A                      A                      A
 Frequencies --     57.5377                64.2761                90.3377
 Red. masses --      3.3430                 3.5092                 2.5731
 Frc consts  --      0.0065                 0.0085                 0.0124
 IR Inten    --      0.3400                 0.1728                 0.4771

                      4                      5                      6
                      A                      A                      A
 Frequencies --    129.3237               169.6039               202.0152
 Red. masses --      2.2276                 1.4762                 1.7808
 Frc consts  --      0.0220                 0.0250                 0.0428
 IR Inten    --      1.9216                 0.3186                 0.4286

                      7                      8                      9
                      A                      A                      A
 Frequencies --    223.4228               261.5400               291.7771
 Red. masses --      1.6739                 1.9885                 2.3830
 Frc consts  --      0.0492                 0.0801                 0.1195
 IR Inten    --      0.1911                 0.7215                 6.9448

                     10                     11                     12
                      A                      A                      A
 Frequencies --    297.8456               321.2082               437.9413
 Red. masses --      1.1652                 2.2075                 2.7333
 Frc consts  --      0.0609                 0.1342                 0.3089
 IR Inten    --     35.8701                 7.6450                 1.5882

                     13                     14                     15
                      A                      A                      A
 Frequencies --    464.7460               486.8322               552.8813
 Red. masses --      2.0784                 2.9219                 2.3283
 Frc consts  --      0.2645                 0.4080                 0.4193
 IR Inten    --      2.4641                 5.3724                31.7284

                     16                     17                     18
                      A                      A                      A
 Frequencies --    612.0850               724.9641               763.3032
 Red. masses --      2.3329                 2.0423                 2.2781
 Frc consts  --      0.5150                 0.6324                 0.7820
 IR Inten    --     28.2546                69.8271                49.5710

                     19                     20                     21
                      A                      A                      A
 Frequencies --    859.6384               873.4439               906.8197
 Red. masses --      1.5720                 1.8087                 1.6755
 Frc consts  --      0.6844                 0.8130                 0.8118
 IR Inten    --    207.1070                57.5027                63.0564

                     22                     23                     24
                      A                      A                      A
 Frequencies --    932.4782               952.1110               987.5820
 Red. masses --      1.4226                 1.5345                 2.2020
 Frc consts  --      0.7288                 0.8196                 1.2654
 IR Inten    --     27.6010                14.3946                64.0509

                     25                     26                     27
                      A                      A                      A
 Frequencies --   1008.5268              1078.2189              1112.7296
 Red. masses --      2.0661                 1.8696                 2.9442
 Frc consts  --      1.2382                 1.2806                 2.1478
 IR Inten    --     15.5073                 8.4675                 9.4377

                     28                     29                     30
                      A                      A                      A
 Frequencies --   1123.1638              1139.6744              1143.8940
 Red. masses --      3.2137                 1.6296                 1.5066
 Frc consts  --      2.3886                 1.2470                 1.1615
 IR Inten    --     23.6844                58.9054                21.7328

                     31                     32                     33
                      A                      A                      A
 Frequencies --   1166.8201              1198.6805              1223.3357
 Red. masses --      2.2659                 2.1986                 1.8335
 Frc consts  --      1.8176                 1.8612                 1.6166
 IR Inten    --     84.8050                11.4146                24.0263

                     34                     35                     36
                      A                      A                      A
 Frequencies --   1229.9778              1258.3035              1304.7545
 Red. masses --      1.8939                 1.7068                 1.2411
 Frc consts  --      1.6881                 1.5922                 1.2448
 IR Inten    --      6.6889                 8.6021                11.8150

                     37                     38                     39
                      A                      A                      A
 Frequencies --   1376.1721              1402.9155              1414.6015
 Red. masses --      1.2198                 1.2420                 1.2118
 Frc consts  --      1.3611                 1.4402                 1.4287
 IR Inten    --     19.3768                29.4313                 3.6703

                     40                     41                     42
                      A                      A                      A
 Frequencies --   1442.8815              1454.7491              1470.1177
 Red. masses --      1.1621                 1.1924                 1.1042
 Frc consts  --      1.4255                 1.4868                 1.4061
 IR Inten    --      4.6481                 8.0487                 1.2473

                     43                     44                     45
                      A                      A                      A
 Frequencies --   1478.4331              1486.0401              1489.2297
 Red. masses --      1.1083                 1.0909                 1.1956
 Frc consts  --      1.4273                 1.4194                 1.5623
 IR Inten    --     27.0636                30.0690                 1.3280

                     46                     47                     48
                      A                      A                      A
 Frequencies --   1492.0763              1498.5728              1512.6780
 Red. masses --      1.1286                 1.1116                 1.1216
 Frc consts  --      1.4804                 1.4707                 1.5120
 IR Inten    --      0.7737                 3.9708                24.6985

                     49                     50                     51
                      A                      A                      A
 Frequencies --   1522.9176              1532.2716              1639.5811
 Red. masses --      1.0837                 1.1636                 1.1056
 Frc consts  --      1.4809                 1.6097                 1.7511
 IR Inten    --      6.8645                77.0235                38.3562

                     52                     53                     54
                      A                      A                      A
 Frequencies --   2899.7168              2937.5820              2943.4229
 Red. masses --      1.0810                 1.0611                 1.0582
 Frc consts  --      5.3554                 5.3950                 5.4014
 IR Inten    --     66.2825               101.1266                82.5897

                     55                     56                     57
                      A                      A                      A
 Frequencies --   2983.1702              3059.1852              3065.9206
 Red. masses --      1.0670                 1.0947                 1.0739
 Frc consts  --      5.5946                 6.0359                 5.9474
 IR Inten    --     71.0508                24.6915                37.6129

                     58                     59                     60
                      A                      A                      A
 Frequencies --   3069.4212              3108.3047              3124.1155
 Red. masses --      1.0731                 1.1028                 1.0999
 Frc consts  --      5.9567                 6.2774                 6.3248
 IR Inten    --     44.0323                22.6762                19.1565

                     61                     62                     63
                      A                      A                      A
 Frequencies --   3385.1427              3480.1584              3505.3196
 Red. masses --      1.0734                 1.0494                 1.0745
 Frc consts  --      7.2474                 7.4883                 7.7785
 IR Inten    --     13.3033                 0.0347                65.0634

                     64                     65                     66
                      A                      A                      A
 Frequencies --   3508.4112              3525.5667              3571.2365
 Red. masses --      1.0724                 1.0755                 1.0910
 Frc consts  --      7.7773                 7.8763                 8.1983
 IR Inten    --      1.7823                 1.6052                 0.9551

 - Thermochemistry -
 -------------------
 Temperature   298.150 Kelvin.  Pressure   1.00000 Atm.
 Atom     1 has atomic number  6 and mass  12.00000

 Molecular mass:   133.13275 amu.
 Principal axes and moments of inertia in atomic units:
                           1         2         3
     Eigenvalues --   617.766642283.752422612.15917
           X            0.99995   0.00983  -0.00208
           Y           -0.00985   0.99992  -0.00745
           Z            0.00201   0.00747   0.99997
 This molecule is an asymmetric top.
 Rotational symmetry number  1.
 Warning -- assumption of classical behavior for rotation
           may cause significant error
 Rotational temperatures (Kelvin)      0.14020     0.03793     0.03316
 Rotational constants (GHZ):           2.92140     0.79025     0.69090
 Zero-point vibrational energy     574397.2 (Joules/Mol)
                                  137.28422 (Kcal/Mol)
 Warning -- explicit consideration of  16 degrees of freedom as
           vibrations may cause significant error
 Vibrational temperatures:     82.78    92.48   129.98   186.07   244.02
          (Kelvin)            290.65   321.46   376.30   419.80   428.53
                              462.15   630.10   668.67   700.44   795.47
                              880.65  1043.06  1098.22  1236.83  1256.69
                             1304.71  1341.63  1369.88  1420.91  1451.05
                             1551.32  1600.97  1615.98  1639.74  1645.81
                             1678.79  1724.63  1760.11  1769.66  1810.42
                             1877.25  1980.00  2018.48  2035.30  2075.98
                             2093.06  2115.17  2127.14  2138.08  2142.67
                             2146.77  2156.11  2176.41  2191.14  2204.60
                             2358.99  4172.05  4226.53  4234.93  4292.12
                             4401.49  4411.18  4416.21  4472.16  4494.91
                             4870.47  5007.17  5043.37  5047.82  5072.50
                             5138.21

 Zero-point correction=                           0.218776 (Hartree/Particle)
 Thermal correction to Energy=                    0.230001
 Thermal correction to Enthalpy=                  0.230945
 Thermal correction to Gibbs Free Energy=         0.181809
 Sum of electronic and zero-point Energies=           -434.971823
 Sum of electronic and thermal Energies=              -434.960599
 Sum of electronic and thermal Enthalpies=            -434.959655
 Sum of electronic and thermal Free Energies=         -435.008791

                     E (Thermal)             CV                S
                      KCal/Mol        Cal/Mol-Kelvin    Cal/Mol-Kelvin
 Total                  144.328             40.590            103.415
 Electronic               0.000              0.000              0.000
 Translational            0.889              2.981             40.571
 Rotational               0.889              2.981             29.690
 Vibrational            142.550             34.629             33.155
 Vibration     1          0.596              1.974              4.540
 Vibration     2          0.597              1.971              4.321
 Vibration     3          0.602              1.956              3.653
 Vibration     4          0.612              1.924              2.956
 Vibration     5          0.625              1.880              2.440
 Vibration     6          0.639              1.837              2.115
 Vibration     7          0.649              1.805              1.931
 Vibration     8          0.669              1.743              1.651
 Vibration     9          0.687              1.689              1.464
 Vibration    10          0.691              1.678              1.429
 Vibration    11          0.707              1.633              1.304
 Vibration    12          0.798              1.387              0.833
 Vibration    13          0.822              1.328              0.752
 Vibration    14          0.843              1.279              0.692
 Vibration    15          0.908              1.133              0.538
 Vibration    16          0.971              1.006              0.429

                           ! Non-Optimized Parameters !
 Normal termination of Gaussian 16 at Tue Jun  1 09:58:54 2021.
