 Gaussian 16, Revision A.03,
 Gaussian 16:  ES64L-G16RevA.03 25-Dec-2016

 -----------------------------
 # opt freq b3lyp/6-31g(2df,p)
 -----------------------------

 -------------------
 Title Card Required
 -------------------
 Symbolic Z-matrix:
 Charge =  0 Multiplicity = 1

 SCF Done:  E(RB3LYP) =  -458.450573849     A.U. after   12 cycles
 SCF Done:  E(RB3LYP) =  -458.458201755     A.U. after   11 cycles
 SCF Done:  E(RB3LYP) =  -458.459638621     A.U. after   11 cycles
 SCF Done:  E(RB3LYP) =  -458.461537643     A.U. after   11 cycles
 SCF Done:  E(RB3LYP) =  -458.461843321     A.U. after   10 cycles
 SCF Done:  E(RB3LYP) =  -458.461926545     A.U. after    9 cycles
 SCF Done:  E(RB3LYP) =  -458.461953546     A.U. after   10 cycles
 SCF Done:  E(RB3LYP) =  -458.461984260     A.U. after    8 cycles
 SCF Done:  E(RB3LYP) =  -458.461997373     A.U. after    9 cycles
 SCF Done:  E(RB3LYP) =  -458.461999935     A.U. after    8 cycles
 SCF Done:  E(RB3LYP) =  -458.462001788     A.U. after    8 cycles
 SCF Done:  E(RB3LYP) =  -458.462002475     A.U. after    8 cycles
 SCF Done:  E(RB3LYP) =  -458.462002645     A.U. after    7 cycles
 SCF Done:  E(RB3LYP) =  -458.462002688     A.U. after    6 cycles
 SCF Done:  E(RB3LYP) =  -458.462002695     A.U. after    6 cycles
 Optimization completed.
    -- Stationary point found.
 Normal termination of Gaussian 16 at Tue Jun  1 08:11:34 2021.

 ----------------------------------------------------------------------
 #N Geom=AllCheck Guess=TCheck SCRF=Check GenChk RB3LYP/6-31G(2df,p) Fr
 eq
 ----------------------------------------------------------------------

 Structure from the checkpoint file:  "CNNCpCNpCCCN.chk"
 -------------------
 Title Card Required
 -------------------
 Charge =  0 Multiplicity = 1

                         Standard orientation:
 ---------------------------------------------------------------------
 Center     Atomic      Atomic             Coordinates (Angstroms)
 Number     Number       Type             X           Y           Z
 ---------------------------------------------------------------------
      1          6           0       -3.869277   -1.274105    0.001822
      2          7           0       -2.733340   -0.569995   -0.583288
      3          7           0       -1.559513   -0.815506    0.272419
      4          6           0       -0.452925    0.072543   -0.110109
      5          6           0       -0.656032    1.468071    0.503943
      6          7           0       -1.771598    2.191163   -0.129168
      7          6           0        0.864053   -0.558562    0.375191
      8          6           0        2.134394    0.068243   -0.209799
      9          6           0        3.408722   -0.646575    0.243107
     10          7           0        4.594360    0.015686   -0.310826
     11          1           0       -4.771939   -0.994839   -0.550858
     12          1           0       -4.017965   -1.064160    1.072695
     13          1           0       -3.736298   -2.357624   -0.111403
     14          1           0       -2.894869    0.431126   -0.468836
     15          1           0       -1.271601   -1.757588    0.010455
     16          1           0       -0.409144    0.180966   -1.210862
     17          1           0        0.290274    2.027719    0.455036
     18          1           0       -0.904598    1.328789    1.561701
     19          1           0       -1.512310    2.463484   -1.073415
     20          1           0       -1.959422    3.051544    0.375607
     21          1           0        0.850749   -1.624435    0.108674
     22          1           0        0.897125   -0.521889    1.472051
     23          1           0        2.222025    1.124110    0.067471
     24          1           0        2.079856    0.041191   -1.307685
     25          1           0        3.332462   -1.718153   -0.015675
     26          1           0        3.480789   -0.597559    1.337049
     27          1           0        4.606452   -0.099419   -1.320893
     28          1           0        5.435437   -0.440389    0.030006
 ---------------------------------------------------------------------

 SCF Done:  E(RB3LYP) =  -458.462002695     A.U. after    1 cycles

 The electronic state is 1-A.
 Alpha  occ. eigenvalues --  -14.31888 -14.31580 -14.30838 -14.30537 -10.20257
 Alpha  occ. eigenvalues --  -10.20236 -10.20082 -10.18045 -10.17983 -10.17738
 Alpha  occ. eigenvalues --   -0.93940  -0.87958  -0.87568  -0.81068  -0.75925
 Alpha  occ. eigenvalues --   -0.69756  -0.65176  -0.62566  -0.58838  -0.56826
 Alpha  occ. eigenvalues --   -0.49723  -0.48387  -0.47749  -0.46913  -0.44818
 Alpha  occ. eigenvalues --   -0.43994  -0.42352  -0.42081  -0.40030  -0.38498
 Alpha  occ. eigenvalues --   -0.37231  -0.36607  -0.35663  -0.34510  -0.33721
 Alpha  occ. eigenvalues --   -0.32649  -0.31740  -0.27854  -0.24285  -0.23419
 Alpha  occ. eigenvalues --   -0.17297
 Alpha virt. eigenvalues --    0.08021   0.08260   0.09330   0.11168   0.11348
 Alpha virt. eigenvalues --    0.12775   0.13785   0.14017   0.15372   0.15755
 Alpha virt. eigenvalues --    0.17103   0.17728   0.18065   0.18889   0.19457

 Mulliken charges:
               1
     1  C   -0.286423
     2  N   -0.287285
     3  N   -0.314778
     4  C    0.068835
     5  C   -0.133790
     6  N   -0.511055
     7  C   -0.214107
     8  C   -0.166501
     9  C   -0.148260
    10  N   -0.510583
    11  H    0.109239
    12  H    0.097123
    13  H    0.104537
    14  H    0.245699
    15  H    0.215438
    16  H    0.054539
    17  H    0.085242
    18  H    0.112120
    19  H    0.230618
    20  H    0.230867
    21  H    0.087652
    22  H    0.104525
    23  H    0.112270
    24  H    0.088997
    25  H    0.076824
    26  H    0.102293
    27  H    0.221361
    28  H    0.224600
 Sum of Mulliken charges =   0.00000

 Dipole moment (field-independent basis, Debye):
    X=              1.5022    Y=              0.4717    Z=             -0.3036  Tot=              1.6036
 Quadrupole moment (field-independent basis, Debye-Ang):
   XX=            -64.5488   YY=            -58.1847   ZZ=            -64.5983
   XY=             -8.5447   XZ=             -2.5023   YZ=             -0.0261

  Exact polarizability: 125.432   1.566  93.417  -0.027  -1.521  81.779
 Approx polarizability: 142.249   0.956 132.221   0.695  -2.254 128.223

                      1                      2                      3
                      A                      A                      A
 Frequencies --     40.2169                42.1757                70.3780
 Red. masses --      1.8724                 3.0237                 2.4448
 Frc consts  --      0.0018                 0.0032                 0.0071
 IR Inten    --      3.8744                 3.1207                 1.1572

                      4                      5                      6
                      A                      A                      A
 Frequencies --     90.2783               123.5260               139.4453
 Red. masses --      3.4204                 2.0167                 2.3933
 Frc consts  --      0.0164                 0.0181                 0.0274
 IR Inten    --      2.5862                 1.8284                 0.3657

                      7                      8                      9
                      A                      A                      A
 Frequencies --    165.7407               202.9323               252.5708
 Red. masses --      2.1155                 2.4621                 1.3962
 Frc consts  --      0.0342                 0.0597                 0.0525
 IR Inten    --      3.0704                 0.6668                 5.8028

                     10                     11                     12
                      A                      A                      A
 Frequencies --    259.8290               271.2515               277.7607
 Red. masses --      1.2247                 1.9658                 2.1151
 Frc consts  --      0.0487                 0.0852                 0.0961
 IR Inten    --     39.3165                 6.4332                 3.9495

                     13                     14                     15
                      A                      A                      A
 Frequencies --    302.7874               342.6848               416.4345
 Red. masses --      2.0822                 3.4015                 3.1254
 Frc consts  --      0.1125                 0.2353                 0.3193
 IR Inten    --     10.8995                 7.0125                 5.9104

                     16                     17                     18
                      A                      A                      A
 Frequencies --    439.1002               528.9429               574.9711
 Red. masses --      2.3169                 2.8871                 3.1149
 Frc consts  --      0.2632                 0.4759                 0.6067
 IR Inten    --      7.0594                13.1287                 6.7532

                     19                     20                     21
                      A                      A                      A
 Frequencies --    746.6230               814.3129               836.7575
 Red. masses --      1.1410                 1.5322                 1.3934
 Frc consts  --      0.3748                 0.5986                 0.5748
 IR Inten    --      3.1786                30.0874                26.8892

                     22                     23                     24
                      A                      A                      A
 Frequencies --    865.7577               885.5866               924.1145
 Red. masses --      1.7372                 1.6668                 1.5011
 Frc consts  --      0.7672                 0.7702                 0.7553
 IR Inten    --     34.4335               113.6526                35.8131

                     25                     26                     27
                      A                      A                      A
 Frequencies --    944.2877               972.1765              1006.0425
 Red. masses --      1.7233                 2.3524                 1.3332
 Frc consts  --      0.9054                 1.3100                 0.7950
 IR Inten    --     84.6328                 9.8777                20.4720

                     28                     29                     30
                      A                      A                      A
 Frequencies --   1020.2607              1049.6690              1058.8071
 Red. masses --      1.6066                 2.8046                 2.3781
 Frc consts  --      0.9854                 1.8206                 1.5708
 IR Inten    --     11.3388                 4.8810                11.4456

                     31                     32                     33
                      A                      A                      A
 Frequencies --   1076.0248              1089.7937              1100.1275
 Red. masses --      1.7197                 2.3780                 2.3304
 Frc consts  --      1.1731                 1.6640                 1.6618
 IR Inten    --      4.0795                10.0149                 5.4162

                     34                     35                     36
                      A                      A                      A
 Frequencies --   1110.2433              1132.0830              1150.2696
 Red. masses --      1.9537                 2.5464                 1.5363
 Frc consts  --      1.4189                 1.9228                 1.1976
 IR Inten    --      7.4047                 2.9528                 5.1794

                     37                     38                     39
                      A                      A                      A
 Frequencies --   1173.9471              1225.3699              1250.7448
 Red. masses --      1.6502                 1.6374                 1.2608
 Frc consts  --      1.3399                 1.4485                 1.1621
 IR Inten    --      5.4326                 0.8411                 5.0482

                     40                     41                     42
                      A                      A                      A
 Frequencies --   1276.0467              1282.7211              1319.3507
 Red. masses --      1.4033                 1.3990                 1.1748
 Frc consts  --      1.3462                 1.3562                 1.2049
 IR Inten    --      1.8582                 5.4820                 1.9260

                     43                     44                     45
                      A                      A                      A
 Frequencies --   1322.9469              1339.3405              1354.6928
 Red. masses --      1.0932                 1.1643                 1.3372
 Frc consts  --      1.1273                 1.2306                 1.4459
 IR Inten    --      1.9151                 0.9414                 0.7958

                     46                     47                     48
                      A                      A                      A
 Frequencies --   1380.3134              1399.3784              1414.8875
 Red. masses --      1.3856                 1.4920                 1.3244
 Frc consts  --      1.5554                 1.7215                 1.5621
 IR Inten    --     12.8575                 8.3225                17.2167

                     49                     50                     51
                      A                      A                      A
 Frequencies --   1431.1191              1443.3520              1465.7871
 Red. masses --      1.4664                 1.1938                 1.2309
 Frc consts  --      1.7696                 1.4653                 1.5582
 IR Inten    --     22.5038                 2.5230                13.8666

                     52                     53                     54
                      A                      A                      A
 Frequencies --   1482.3872              1484.1561              1496.4847
 Red. masses --      1.0674                 1.0819                 1.0863
 Frc consts  --      1.3819                 1.4041                 1.4334
 IR Inten    --      2.4423                 5.7473                 1.0382

                     55                     56                     57
                      A                      A                      A
 Frequencies --   1498.3238              1515.4175              1518.9671
 Red. masses --      1.1087                 1.0522                 1.0925
 Frc consts  --      1.4665                 1.4237                 1.4852
 IR Inten    --      4.4624                14.1743                 1.0483

                     58                     59                     60
                      A                      A                      A
 Frequencies --   1582.4998              1652.3359              1659.3934
 Red. masses --      1.1083                 1.0883                 1.0888
 Frc consts  --      1.6352                 1.7506                 1.7665
 IR Inten    --      8.8071                26.3234                21.9916

                     61                     62                     63
                      A                      A                      A
 Frequencies --   2913.9907              2933.7307              2976.7125
 Red. masses --      1.0800                 1.0726                 1.0461
 Frc consts  --      5.4033                 5.4390                 5.4612
 IR Inten    --     51.9400                69.6131                95.4757

                     64                     65                     66
                      A                      A                      A
 Frequencies --   2982.4852              3005.2772              3008.0450
 Red. masses --      1.0678                 1.0616                 1.0690
 Frc consts  --      5.5961                 5.6492                 5.6990
 IR Inten    --     63.3496                 6.4842                37.0043

                     67                     68                     69
                      A                      A                      A
 Frequencies --   3039.4975              3043.9197              3044.7877
 Red. masses --      1.0872                 1.0908                 1.0925
 Frc consts  --      5.9178                 5.9547                 5.9673
 IR Inten    --     22.3642                51.6515                26.4699

                     70                     71                     72
                      A                      A                      A
 Frequencies --   3070.2639              3078.5736              3095.4015
 Red. masses --      1.0931                 1.0981                 1.0981
 Frc consts  --      6.0709                 6.1320                 6.1991
 IR Inten    --     35.2514                54.4499                31.4890

                     73                     74                     75
                      A                      A                      A
 Frequencies --   3429.9763              3450.0802              3483.2050
 Red. masses --      1.0752                 1.0747                 1.0497
 Frc consts  --      7.4526                 7.5368                 7.5033
 IR Inten    --     81.5315                24.9714                 1.1601

                     76                     77                     78
                      A                      A                      A
 Frequencies --   3489.2770              3560.8511              3568.9571
 Red. masses --      1.0495                 1.0916                 1.0923
 Frc consts  --      7.5286                 8.1550                 8.1972
 IR Inten    --      0.1706                 0.1694                 0.8635

 - Thermochemistry -
 -------------------
 Temperature   298.150 Kelvin.  Pressure   1.00000 Atm.
 Atom     1 has atomic number  6 and mass  12.00000

 Molecular mass:   146.15315 amu.
 Principal axes and moments of inertia in atomic units:
                           1         2         3
     Eigenvalues --   727.422283759.334214285.84284
           X            1.00000  -0.00177  -0.00227
           Y            0.00176   0.99998  -0.00569
           Z            0.00228   0.00568   0.99998
 This molecule is an asymmetric top.
 Rotational symmetry number  1.
 Warning -- assumption of classical behavior for rotation
           may cause significant error
 Rotational temperatures (Kelvin)      0.11907     0.02304     0.02021
 Rotational constants (GHZ):           2.48101     0.48007     0.42109
 Zero-point vibrational energy     678695.1 (Joules/Mol)
                                  162.21202 (Kcal/Mol)
 Warning -- explicit consideration of  18 degrees of freedom as
           vibrations may cause significant error
 Vibrational temperatures:     57.86    60.68   101.26   129.89   177.73
          (Kelvin)            200.63   238.46   291.97   363.39   373.84
                              390.27   399.64   435.64   493.05   599.16
                              631.77   761.03   827.26  1074.22  1171.61
                             1203.91  1245.63  1274.16  1329.59  1358.62
                             1398.75  1447.47  1467.93  1510.24  1523.39
                             1548.16  1567.97  1582.84  1597.39  1628.82
                             1654.98  1689.05  1763.03  1799.54  1835.95
                             1845.55  1898.25  1903.43  1927.01  1949.10
                             1985.96  2013.39  2035.71  2059.06  2076.66
                             2108.94  2132.82  2135.37  2153.11  2155.75
                             2180.35  2185.45  2276.86  2377.34  2387.50
                             4192.58  4220.98  4282.83  4291.13  4323.92
                             4327.91  4373.16  4379.52  4380.77  4417.43
                             4429.38  4453.59  4934.97  4963.90  5011.56
                             5020.29  5123.27  5134.93

 Zero-point correction=                           0.258501 (Hartree/Particle)
 Thermal correction to Energy=                    0.271661
 Thermal correction to Enthalpy=                  0.272606
 Thermal correction to Gibbs Free Energy=         0.218108
 Sum of electronic and zero-point Energies=           -458.203501
 Sum of electronic and thermal Energies=              -458.190341
 Sum of electronic and thermal Enthalpies=            -458.189397
 Sum of electronic and thermal Free Energies=         -458.243895

                     E (Thermal)             CV                S
                      KCal/Mol        Cal/Mol-Kelvin    Cal/Mol-Kelvin
 Total                  170.470             46.677            114.701
 Electronic               0.000              0.000              0.000
 Translational            0.889              2.981             40.849
 Rotational               0.889              2.981             30.839
 Vibrational            168.693             40.715             43.012
 Vibration     1          0.594              1.981              5.248
 Vibration     2          0.595              1.980              5.154
 Vibration     3          0.598              1.968              4.143
 Vibration     4          0.602              1.956              3.654
 Vibration     5          0.610              1.929              3.044
 Vibration     6          0.615              1.914              2.811
 Vibration     7          0.624              1.885              2.483
 Vibration     8          0.639              1.836              2.106
 Vibration     9          0.664              1.758              1.713
 Vibration    10          0.668              1.746              1.663
 Vibration    11          0.675              1.726              1.588
 Vibration    12          0.679              1.715              1.547
 Vibration    13          0.694              1.668              1.401
 Vibration    14          0.722              1.590              1.200
 Vibration    15          0.780              1.435              0.904
 Vibration    16          0.799              1.385              0.829
 Vibration    17          0.884              1.186              0.590
 Vibration    18          0.931              1.085              0.495

 Optimization completed.
    -- Stationary point found.
 Normal termination of Gaussian 16 at Tue Jun  1 09:04:24 2021.
