 Gaussian 16, Revision A.03,
 Gaussian 16:  ES64L-G16RevA.03 25-Dec-2016

 -----------------------------
 # opt freq b3lyp/6-31g(2df,p)
 -----------------------------

 -------------------
 Title Card Required
 -------------------
 Symbolic Z-matrix:
 Charge =  0 Multiplicity = 1

 SCF Done:  E(RB3LYP) =  -432.754641251     A.U. after   14 cycles
 SCF Done:  E(RB3LYP) =  -432.762710193     A.U. after   12 cycles
 SCF Done:  E(RB3LYP) =  -432.765918478     A.U. after   12 cycles
 SCF Done:  E(RB3LYP) =  -432.768957018     A.U. after   13 cycles
 SCF Done:  E(RB3LYP) =  -432.770027508     A.U. after   12 cycles
 SCF Done:  E(RB3LYP) =  -432.770811067     A.U. after   11 cycles
 SCF Done:  E(RB3LYP) =  -432.771532487     A.U. after   12 cycles
 SCF Done:  E(RB3LYP) =  -432.772614372     A.U. after   13 cycles
 SCF Done:  E(RB3LYP) =  -432.773622641     A.U. after   11 cycles
 SCF Done:  E(RB3LYP) =  -432.776324967     A.U. after   12 cycles
 SCF Done:  E(RB3LYP) =  -432.776471752     A.U. after   13 cycles
 SCF Done:  E(RB3LYP) =  -432.777685939     A.U. after   12 cycles
 SCF Done:  E(RB3LYP) =  -432.777780343     A.U. after   10 cycles
 SCF Done:  E(RB3LYP) =  -432.777796516     A.U. after   10 cycles
 SCF Done:  E(RB3LYP) =  -432.777798944     A.U. after    8 cycles
 SCF Done:  E(RB3LYP) =  -432.777799397     A.U. after    7 cycles
 SCF Done:  E(RB3LYP) =  -432.777799519     A.U. after    7 cycles
 SCF Done:  E(RB3LYP) =  -432.777799584     A.U. after    7 cycles
 Optimization completed.
    -- Stationary point found.
 Normal termination of Gaussian 16 at Mon May 31 16:37:16 2021.

 ----------------------------------------------------------------------
 #N Geom=AllCheck Guess=TCheck SCRF=Check GenChk RB3LYP/6-31G(2df,p) Fr
 eq
 ----------------------------------------------------------------------

 Structure from the checkpoint file:  "CNNCpNpdCNdCN.chk"
 -------------------
 Title Card Required
 -------------------
 Charge =  0 Multiplicity = 1

                         Standard orientation:
 ---------------------------------------------------------------------
 Center     Atomic      Atomic             Coordinates (Angstroms)
 Number     Number       Type             X           Y           Z
 ---------------------------------------------------------------------
      1          6           0       -3.159795   -0.921482   -0.874153
      2          7           0       -2.877296    0.166806    0.058724
      3          7           0       -1.749516   -0.077389    0.890828
      4          6           0       -0.526804    0.363527    0.345160
      5          7           0       -0.549971    1.660119   -0.138505
      6          6           0        0.595284   -0.393725    0.406475
      7          7           0        1.806961    0.121913   -0.028444
      8          6           0        2.878701   -0.558184    0.081847
      9          7           0        4.087583   -0.135384   -0.452426
     10          1           0       -4.071454   -0.686454   -1.431988
     11          1           0       -3.295864   -1.899822   -0.380770
     12          1           0       -2.331866   -1.011137   -1.583427
     13          1           0       -3.668709    0.326459    0.671268
     14          1           0       -1.682058   -1.053783    1.174203
     15          1           0       -1.434184    1.893091   -0.570578
     16          1           0        0.261289    1.859983   -0.706805
     17          1           0        0.545013   -1.395289    0.839952
     18          1           0        2.924519   -1.552546    0.545949
     19          1           0        4.095782    0.849208   -0.685231
     20          1           0        4.908886   -0.422979    0.060214
 ---------------------------------------------------------------------

 SCF Done:  E(RB3LYP) =  -432.777799584     A.U. after    1 cycles

 The electronic state is 1-A.
 Alpha  occ. eigenvalues --  -14.35060 -14.34925 -14.32788 -14.30541 -14.29231
 Alpha  occ. eigenvalues --  -10.22574 -10.22023 -10.20824 -10.16124  -0.98457
 Alpha  occ. eigenvalues --   -0.92912  -0.88913  -0.85113  -0.80103  -0.69994
 Alpha  occ. eigenvalues --   -0.65807  -0.58732  -0.56198  -0.53104  -0.50505
 Alpha  occ. eigenvalues --   -0.49796  -0.46983  -0.44792  -0.43991  -0.42955
 Alpha  occ. eigenvalues --   -0.40527  -0.39599  -0.38421  -0.37053  -0.33193
 Alpha  occ. eigenvalues --   -0.26324  -0.25074  -0.24504  -0.23758  -0.14964
 Alpha virt. eigenvalues --    0.02665   0.07913   0.09646   0.10450   0.11843
 Alpha virt. eigenvalues --    0.12255   0.13461   0.13604   0.15915   0.16803
 Alpha virt. eigenvalues --    0.17394   0.18580   0.19111   0.20032   0.24090

 Mulliken charges:
               1
     1  C   -0.312153
     2  N   -0.263772
     3  N   -0.334833
     4  C    0.333571
     5  N   -0.547824
     6  C   -0.123119
     7  N   -0.238116
     8  C    0.074520
     9  N   -0.512979
    10  H    0.123557
    11  H    0.098505
    12  H    0.142348
    13  H    0.236830
    14  H    0.218342
    15  H    0.244306
    16  H    0.248313
    17  H    0.042717
    18  H    0.079143
    19  H    0.246241
    20  H    0.244401
 Sum of Mulliken charges =  -0.00000

 Dipole moment (field-independent basis, Debye):
    X=             -0.5547    Y=             -1.4914    Z=             -0.2317  Tot=              1.6080
 Quadrupole moment (field-independent basis, Debye-Ang):
   XX=            -34.8043   YY=            -52.5696   ZZ=            -56.0633
   XY=              2.8628   XZ=              3.1673   YZ=             -5.1600

  Exact polarizability: 158.512 -11.772  75.246  -2.713  -8.113  55.299
 Approx polarizability: 220.325 -33.646 119.048  -9.457 -12.104  83.872

                      1                      2                      3
                      A                      A                      A
 Frequencies --     53.4435                93.2897               117.5475
 Red. masses --      3.6637                 3.1039                 2.9651
 Frc consts  --      0.0062                 0.0159                 0.0241
 IR Inten    --      7.0212                 2.7460                 0.5844

                      4                      5                      6
                      A                      A                      A
 Frequencies --    139.7330               166.2966               217.1480
 Red. masses --      4.2195                 2.0477                 1.1587
 Frc consts  --      0.0485                 0.0334                 0.0322
 IR Inten    --      5.7182                 6.0708                 1.0795

                      7                      8                      9
                      A                      A                      A
 Frequencies --    306.7522               325.2013               367.4451
 Red. masses --      2.7216                 2.6319                 3.8897
 Frc consts  --      0.1509                 0.1640                 0.3094
 IR Inten    --     14.5390                41.4751                 5.1748

                     10                     11                     12
                      A                      A                      A
 Frequencies --    385.6190               413.0299               421.8405
 Red. masses --      2.4434                 1.7235                 1.4154
 Frc consts  --      0.2141                 0.1732                 0.1484
 IR Inten    --      1.6297                28.7687                81.0663

                     13                     14                     15
                      A                      A                      A
 Frequencies --    474.1183               593.0290               605.8752
 Red. masses --      1.7617                 2.5162                 3.0311
 Frc consts  --      0.2333                 0.5214                 0.6556
 IR Inten    --     54.0475                32.5677               121.1373

                     16                     17                     18
                      A                      A                      A
 Frequencies --    659.8947               662.7439               712.1098
 Red. masses --      1.6038                 1.6482                 2.1935
 Frc consts  --      0.4115                 0.4265                 0.6554
 IR Inten    --    327.1525               140.3896                13.2293

                     19                     20                     21
                      A                      A                      A
 Frequencies --    747.5503               776.3695               871.0069
 Red. masses --      1.4217                 2.1021                 1.4816
 Frc consts  --      0.4681                 0.7465                 0.6623
 IR Inten    --     79.9343               157.1557                83.2227

                     22                     23                     24
                      A                      A                      A
 Frequencies --    946.4720               957.5385               982.2922
 Red. masses --      1.4657                 2.3388                 1.9206
 Frc consts  --      0.7736                 1.2635                 1.0919
 IR Inten    --     15.2134                25.9777                18.0823

                     25                     26                     27
                      A                      A                      A
 Frequencies --   1054.8707              1117.9393              1130.3901
 Red. masses --      1.9577                 4.2153                 1.4745
 Frc consts  --      1.2835                 3.1040                 1.1101
 IR Inten    --     16.6322                 7.9844                 3.3816

                     28                     29                     30
                      A                      A                      A
 Frequencies --   1165.8572              1204.0388              1226.8812
 Red. masses --      1.6062                 2.0226                 1.8384
 Frc consts  --      1.2863                 1.7276                 1.6304
 IR Inten    --     20.0450                68.5921                 8.5323

                     31                     32                     33
                      A                      A                      A
 Frequencies --   1283.0301              1308.8501              1398.2744
 Red. masses --      2.3443                 1.4019                 1.3790
 Frc consts  --      2.2737                 1.4150                 1.5885
 IR Inten    --    101.3447                 5.0378                 9.7635

                     34                     35                     36
                      A                      A                      A
 Frequencies --   1417.8327              1444.5528              1478.3826
 Red. masses --      2.0098                 1.2053                 1.1641
 Frc consts  --      2.3804                 1.4818                 1.4990
 IR Inten    --     14.8154                 1.9804                 8.9818

                     37                     38                     39
                      A                      A                      A
 Frequencies --   1496.2153              1497.6832              1528.7057
 Red. masses --      1.1715                 1.1342                 1.1766
 Frc consts  --      1.5452                 1.4989                 1.6200
 IR Inten    --      1.2626                 0.2829                 9.3663

                     40                     41                     42
                      A                      A                      A
 Frequencies --   1599.6521              1624.4253              1718.4331
 Red. masses --      1.2510                 1.1842                 5.2303
 Frc consts  --      1.8861                 1.8411                 9.1000
 IR Inten    --     79.4019                35.3220               109.9229

                     43                     44                     45
                      A                      A                      A
 Frequencies --   1738.5240              2954.3898              3026.6554
 Red. masses --      5.8719                 1.0564                 1.0854
 Frc consts  --     10.4565                 5.4329                 5.8584
 IR Inten    --    419.2304                72.9455                49.9502

                     46                     47                     48
                      A                      A                      A
 Frequencies --   3071.1930              3077.0605              3116.3820
 Red. masses --      1.0751                 1.0867                 1.1037
 Frc consts  --      5.9745                 6.0620                 6.3154
 IR Inten    --     27.2657                56.2161                20.2091

                     49                     50                     51
                      A                      A                      A
 Frequencies --   3451.8181              3530.2886              3543.5596
 Red. masses --      1.0737                 1.0754                 1.0462
 Frc consts  --      7.5378                 7.8970                 7.7402
 IR Inten    --      7.3550                 1.4264                23.0589

                     52                     53                     54
                      A                      A                      A
 Frequencies --   3544.7864              3656.0668              3657.9247
 Red. masses --      1.0455                 1.0981                 1.0981
 Frc consts  --      7.7405                 8.6484                 8.6566
 IR Inten    --     12.7305                11.3508                39.4932

 - Thermochemistry -
 -------------------
 Temperature   298.150 Kelvin.  Pressure   1.00000 Atm.
 Atom     1 has atomic number  6 and mass  12.00000

 Molecular mass:   129.10145 amu.
 Principal axes and moments of inertia in atomic units:
                           1         2         3
     Eigenvalues --   397.564942881.737943024.96116
           X            0.99992   0.00909   0.00834
           Y           -0.00853   0.99784  -0.06518
           Z           -0.00892   0.06511   0.99784
 This molecule is an asymmetric top.
 Rotational symmetry number  1.
 Rotational temperatures (Kelvin)      0.21786     0.03006     0.02863
 Rotational constants (GHZ):           4.53949     0.62627     0.59662
 Zero-point vibrational energy     448964.5 (Joules/Mol)
                                  107.30510 (Kcal/Mol)
 Warning -- explicit consideration of  15 degrees of freedom as
           vibrations may cause significant error
 Vibrational temperatures:     76.89   134.22   169.12   201.04   239.26
          (Kelvin)            312.43   441.35   467.89   528.67   554.82
                              594.26   606.93   682.15   853.24   871.72
                              949.44   953.54  1024.57  1075.56  1117.02
                             1253.18  1361.76  1377.68  1413.30  1517.72
                             1608.47  1626.38  1677.41  1732.34  1765.21
                             1845.99  1883.14  2011.81  2039.94  2078.39
                             2127.06  2152.72  2154.83  2199.47  2301.54
                             2337.19  2472.44  2501.35  4250.71  4354.68
                             4418.76  4427.20  4483.78  4966.40  5079.30
                             5098.39  5100.16  5260.26  5262.94

 Zero-point correction=                           0.171002 (Hartree/Particle)
 Thermal correction to Energy=                    0.181474
 Thermal correction to Enthalpy=                  0.182418
 Thermal correction to Gibbs Free Energy=         0.135166
 Sum of electronic and zero-point Energies=           -432.606798
 Sum of electronic and thermal Energies=              -432.596326
 Sum of electronic and thermal Enthalpies=            -432.595382
 Sum of electronic and thermal Free Energies=         -432.642633

                     E (Thermal)             CV                S
                      KCal/Mol        Cal/Mol-Kelvin    Cal/Mol-Kelvin
 Total                  113.876             38.379             99.449
 Electronic               0.000              0.000              0.000
 Translational            0.889              2.981             40.479
 Rotational               0.889              2.981             29.629
 Vibrational            112.099             32.417             29.341
 Vibration     1          0.596              1.976              4.686
 Vibration     2          0.602              1.954              3.590
 Vibration     3          0.608              1.935              3.140
 Vibration     4          0.615              1.914              2.808
 Vibration     5          0.624              1.884              2.477
 Vibration     6          0.646              1.815              1.983
 Vibration     7          0.697              1.661              1.380
 Vibration     8          0.709              1.625              1.284
 Vibration     9          0.740              1.539              1.090
 Vibration    10          0.754              1.501              1.017
 Vibration    11          0.777              1.442              0.916
 Vibration    12          0.784              1.423              0.886
 Vibration    13          0.831              1.307              0.726
 Vibration    14          0.951              1.047              0.462
 Vibration    15          0.965              1.019              0.440

 Optimization completed.
    -- Stationary point found.
 Normal termination of Gaussian 16 at Mon May 31 17:01:59 2021.
