 Gaussian 16, Revision A.03,
 Gaussian 16:  ES64L-G16RevA.03 25-Dec-2016

 -----------------------------
 # opt freq b3lyp/6-31g(2df,p)
 -----------------------------

 -------------------
 Title Card Required
 -------------------
 Symbolic Z-matrix:
 Charge =  0 Multiplicity = 1

 SCF Done:  E(RB3LYP) =  -510.135173819     A.U. after   14 cycles
 SCF Done:  E(RB3LYP) =  -510.145083757     A.U. after   14 cycles
 SCF Done:  E(RB3LYP) =  -510.148067603     A.U. after   13 cycles
 SCF Done:  E(RB3LYP) =  -510.149323159     A.U. after   14 cycles
 SCF Done:  E(RB3LYP) =  -510.149669890     A.U. after   12 cycles
 SCF Done:  E(RB3LYP) =  -510.149886598     A.U. after   13 cycles
 SCF Done:  E(RB3LYP) =  -510.149956684     A.U. after   12 cycles
 SCF Done:  E(RB3LYP) =  -510.150039012     A.U. after   12 cycles
 SCF Done:  E(RB3LYP) =  -510.150065720     A.U. after   12 cycles
 SCF Done:  E(RB3LYP) =  -510.150073721     A.U. after   10 cycles
 SCF Done:  E(RB3LYP) =  -510.153877286     A.U. after   14 cycles
 SCF Done:  E(RB3LYP) =  -510.154770851     A.U. after   12 cycles
 SCF Done:  E(RB3LYP) =  -510.154893547     A.U. after   11 cycles
 SCF Done:  E(RB3LYP) =  -510.154997191     A.U. after   11 cycles
 SCF Done:  E(RB3LYP) =  -510.155113351     A.U. after   13 cycles
 SCF Done:  E(RB3LYP) =  -510.155125482     A.U. after   10 cycles
 SCF Done:  E(RB3LYP) =  -510.155132804     A.U. after   10 cycles
 SCF Done:  E(RB3LYP) =  -510.155133345     A.U. after    8 cycles
 SCF Done:  E(RB3LYP) =  -510.155133480     A.U. after    7 cycles
 Optimization completed.
    -- Stationary point found.
 Normal termination of Gaussian 16 at Tue Jun  1 02:39:32 2021.

 ----------------------------------------------------------------------
 #N Geom=AllCheck Guess=TCheck SCRF=Check GenChk RB3LYP/6-31G(2df,p) Fr
 eq
 ----------------------------------------------------------------------

 Structure from the checkpoint file:  "CNNCCpNdCCtNpNC.chk"
 -------------------
 Title Card Required
 -------------------
 Charge =  0 Multiplicity = 1

                         Standard orientation:
 ---------------------------------------------------------------------
 Center     Atomic      Atomic             Coordinates (Angstroms)
 Number     Number       Type             X           Y           Z
 ---------------------------------------------------------------------
      1          6           0        3.755931    0.736258   -0.642900
      2          7           0        3.106937    0.229105    0.563062
      3          7           0        1.683341    0.290791    0.529737
      4          6           0        1.112311   -0.905051   -0.079130
      5          6           0       -0.393865   -0.994543    0.214740
      6          7           0       -1.038648    0.190209   -0.353298
      7          6           0       -1.584435    0.992856    0.463670
      8          6           0       -2.208598    2.205020   -0.001076
      9          7           0       -2.719711    3.192005   -0.321723
     10          7           0       -0.938837   -2.168131   -0.434005
     11          6           0       -2.291165   -2.518581   -0.018129
     12          1           0        4.838170    0.756168   -0.481285
     13          1           0        3.429412    1.752301   -0.928533
     14          1           0        3.554517    0.067096   -1.485176
     15          1           0        3.399454    0.777339    1.364375
     16          1           0        1.377625    1.111356    0.003434
     17          1           0        1.607675   -1.764483    0.383042
     18          1           0        1.247888   -0.976133   -1.168794
     19          1           0       -0.534468   -1.004279    1.316540
     20          1           0       -1.618762    0.835280    1.549224
     21          1           0       -0.310866   -2.949830   -0.287190
     22          1           0       -2.990574   -1.745570   -0.350470
     23          1           0       -2.409468   -2.636860    1.073840
     24          1           0       -2.583246   -3.455989   -0.498474
 ---------------------------------------------------------------------

 SCF Done:  E(RB3LYP) =  -510.155133480     A.U. after    1 cycles

 The electronic state is 1-A.
 Alpha  occ. eigenvalues --  -14.35978 -14.34649 -14.34568 -14.34527 -14.32722
 Alpha  occ. eigenvalues --  -10.27579 -10.25176 -10.23258 -10.21406 -10.20883
 Alpha  occ. eigenvalues --  -10.20794  -0.97911  -0.96363  -0.91687  -0.89853
 Alpha  occ. eigenvalues --   -0.81749  -0.74576  -0.69371  -0.67265  -0.63826
 Alpha  occ. eigenvalues --   -0.60188  -0.54234  -0.52298  -0.51164  -0.48272
 Alpha  occ. eigenvalues --   -0.47811  -0.46720  -0.43445  -0.42348  -0.40986
 Alpha  occ. eigenvalues --   -0.40289  -0.39033  -0.38291  -0.37911  -0.37079
 Alpha  occ. eigenvalues --   -0.36322  -0.34544  -0.31391  -0.28962  -0.24511
 Alpha  occ. eigenvalues --   -0.24110  -0.23432
 Alpha virt. eigenvalues --   -0.07121   0.02194   0.07420   0.08313   0.10066
 Alpha virt. eigenvalues --    0.10481   0.11432   0.11881   0.13111   0.13740
 Alpha virt. eigenvalues --    0.14119   0.15235   0.15875   0.16603   0.17091

 Mulliken charges:
               1
     1  C   -0.311217
     2  N   -0.249571
     3  N   -0.311566
     4  C   -0.131119
     5  C    0.055234
     6  N   -0.128221
     7  C   -0.093563
     8  C    0.270015
     9  N   -0.302192
    10  N   -0.279142
    11  C   -0.324191
    12  H    0.124126
    13  H    0.099746
    14  H    0.131876
    15  H    0.232100
    16  H    0.214343
    17  H    0.114446
    18  H    0.110233
    19  H    0.056087
    20  H    0.138981
    21  H    0.225442
    22  H    0.136852
    23  H    0.095122
    24  H    0.126180
 Sum of Mulliken charges =  -0.00000

 Dipole moment (field-independent basis, Debye):
    X=              2.2850    Y=             -2.6964    Z=              1.8809  Tot=              4.0037
 Quadrupole moment (field-independent basis, Debye-Ang):
   XX=            -67.0863   YY=            -71.5616   ZZ=            -67.9256
   XY=             13.2218   XZ=             -5.3851   YZ=              2.2972

  Exact polarizability: 114.769 -10.836 117.964  -1.259  -0.328  77.189
 Approx polarizability: 144.649 -29.531 173.380  -1.177   1.924 124.916

                      1                      2                      3
                      A                      A                      A
 Frequencies --     35.5844                43.0244                68.6644
 Red. masses --      3.5334                 5.0265                 2.5856
 Frc consts  --      0.0026                 0.0055                 0.0072
 IR Inten    --      5.7027                 1.4023                 2.7570

                      4                      5                      6
                      A                      A                      A
 Frequencies --     79.9014               116.2292               145.3523
 Red. masses --      2.3602                 3.0636                 3.5678
 Frc consts  --      0.0089                 0.0244                 0.0444
 IR Inten    --      7.6225                 5.9572                 2.5287

                      7                      8                      9
                      A                      A                      A
 Frequencies --    146.9995               170.0311               221.7448
 Red. masses --      3.9398                 2.4123                 1.2505
 Frc consts  --      0.0502                 0.0411                 0.0362
 IR Inten    --      7.6398                 0.9262                 1.6000

                     10                     11                     12
                      A                      A                      A
 Frequencies --    225.7622               307.5249               340.7413
 Red. masses --      1.2281                 3.6012                 3.2552
 Frc consts  --      0.0369                 0.2007                 0.2227
 IR Inten    --      0.5812                 5.2514                 4.4394

                     13                     14                     15
                      A                      A                      A
 Frequencies --    364.4677               385.8701               431.8310
 Red. masses --      4.3620                 3.9348                 2.7937
 Frc consts  --      0.3414                 0.3452                 0.3069
 IR Inten    --      0.7785                 3.7854                11.4366

                     16                     17                     18
                      A                      A                      A
 Frequencies --    463.3100               520.3888               588.3353
 Red. masses --      3.4046                 4.8991                 2.7887
 Frc consts  --      0.4306                 0.7817                 0.5687
 IR Inten    --      2.2858                 2.4201                39.9658

                     19                     20                     21
                      A                      A                      A
 Frequencies --    612.9042               731.5469               781.3902
 Red. masses --      3.0135                 1.8396                 1.8589
 Frc consts  --      0.6670                 0.5800                 0.6687
 IR Inten    --     10.0152                69.9690                57.0463

                     22                     23                     24
                      A                      A                      A
 Frequencies --    869.4348               905.7930               966.8210
 Red. masses --      1.4942                 1.9887                 1.7142
 Frc consts  --      0.6655                 0.9613                 0.9441
 IR Inten    --     38.3045                21.3993                 5.5529

                     25                     26                     27
                      A                      A                      A
 Frequencies --    977.3123               993.1593              1025.3385
 Red. masses --      1.9779                 2.7424                 2.7247
 Frc consts  --      1.1131                 1.5938                 1.6877
 IR Inten    --      5.4927                15.3974                10.0835

                     28                     29                     30
                      A                      A                      A
 Frequencies --   1059.5828              1071.8041              1123.9454
 Red. masses --      2.6000                 2.2416                 1.7004
 Frc consts  --      1.7198                 1.5172                 1.2656
 IR Inten    --     31.4897                 2.3709                 1.6538

                     31                     32                     33
                      A                      A                      A
 Frequencies --   1130.7802              1150.2078              1170.0403
 Red. masses --      2.1753                 1.8485                 2.8819
 Frc consts  --      1.6388                 1.4408                 2.3245
 IR Inten    --      9.2077                 2.7642                52.7141

                     34                     35                     36
                      A                      A                      A
 Frequencies --   1179.1611              1213.7038              1237.9872
 Red. masses --      1.8719                 1.9243                 2.0372
 Frc consts  --      1.5335                 1.6701                 1.8396
 IR Inten    --     19.7047                13.4045                18.0568

                     37                     38                     39
                      A                      A                      A
 Frequencies --   1274.9948              1311.5014              1351.6623
 Red. masses --      1.3242                 1.3175                 1.1828
 Frc consts  --      1.2683                 1.3351                 1.2732
 IR Inten    --     11.6368                15.2840                19.4064

                     40                     41                     42
                      A                      A                      A
 Frequencies --   1381.8424              1403.8706              1447.8375
 Red. masses --      1.4251                 1.2898                 1.1750
 Frc consts  --      1.6032                 1.4977                 1.4512
 IR Inten    --      3.5519                39.5221                 0.8150

                     43                     44                     45
                      A                      A                      A
 Frequencies --   1460.8558              1477.2361              1484.2120
 Red. masses --      1.1920                 1.0896                 1.1603
 Frc consts  --      1.4988                 1.4010                 1.5060
 IR Inten    --      1.0010                 6.2175                10.9921

                     46                     47                     48
                      A                      A                      A
 Frequencies --   1494.1883              1495.0715              1500.3564
 Red. masses --      1.0920                 1.0810                 1.1052
 Frc consts  --      1.4364                 1.4236                 1.4658
 IR Inten    --      2.2385                 4.1731                 3.2665

                     49                     50                     51
                      A                      A                      A
 Frequencies --   1504.1617              1520.8676              1533.2083
 Red. masses --      1.0732                 1.0723                 1.1343
 Frc consts  --      1.4306                 1.4614                 1.5710
 IR Inten    --      2.3488                 9.4199                16.6210

                     52                     53                     54
                      A                      A                      A
 Frequencies --   1695.8339              2348.9145              2866.3582
 Red. masses --      9.2125                12.6461                 1.0796
 Frc consts  --     15.6096                41.1093                 5.2260
 IR Inten    --     26.0651                 0.3890                60.6460

                     55                     56                     57
                      A                      A                      A
 Frequencies --   2946.6487              2947.4399              2992.5370
 Red. masses --      1.0592                 1.0577                 1.0667
 Frc consts  --      5.4186                 5.4136                 5.6283
 IR Inten    --     98.8035                47.4185                38.2627

                     58                     59                     60
                      A                      A                      A
 Frequencies --   3037.0142              3067.4287              3074.4196
 Red. masses --      1.0850                 1.0740                 1.0732
 Frc consts  --      5.8960                 5.9539                 5.9769
 IR Inten    --     15.6374                34.0200                27.7659

                     61                     62                     63
                      A                      A                      A
 Frequencies --   3083.7411              3109.4467              3117.6636
 Red. masses --      1.0942                 1.1030                 1.1024
 Frc consts  --      6.1306                 6.2833                 6.3132
 IR Inten    --     15.4256                24.9329                21.2201

                     64                     65                     66
                      A                      A                      A
 Frequencies --   3407.3055              3518.9917              3543.3984
 Red. masses --      1.0729                 1.0753                 1.0740
 Frc consts  --      7.3392                 7.8452                 7.9448
 IR Inten    --      9.2234                 1.2684                 0.9314

 - Thermochemistry -
 -------------------
 Temperature   298.150 Kelvin.  Pressure   1.00000 Atm.
 Atom     1 has atomic number  6 and mass  12.00000

 Molecular mass:   155.11710 amu.
 Principal axes and moments of inertia in atomic units:
                           1         2         3
     Eigenvalues --  1638.998812754.381934145.30792
           X            0.99527   0.09604  -0.01477
           Y           -0.09608   0.99537  -0.00180
           Z            0.01453   0.00321   0.99989
 This molecule is an asymmetric top.
 Rotational symmetry number  1.
 Warning -- assumption of classical behavior for rotation
           may cause significant error
 Rotational temperatures (Kelvin)      0.05285     0.03145     0.02089
 Rotational constants (GHZ):           1.10112     0.65523     0.43537
 Zero-point vibrational energy     533867.5 (Joules/Mol)
                                  127.59741 (Kcal/Mol)
 Warning -- explicit consideration of  19 degrees of freedom as
           vibrations may cause significant error
 Vibrational temperatures:     51.20    61.90    98.79   114.96   167.23
          (Kelvin)            209.13   211.50   244.64   319.04   324.82
                              442.46   490.25   524.39   555.18   621.31
                              666.60   748.72   846.48   881.83  1052.53
                             1124.25  1250.92  1303.23  1391.04  1406.13
                             1428.93  1475.23  1524.50  1542.09  1617.11
                             1626.94  1654.89  1683.43  1696.55  1746.25
                             1781.19  1834.43  1886.96  1944.74  1988.16
                             2019.86  2083.12  2101.85  2125.41  2135.45
                             2149.80  2151.07  2158.68  2164.15  2188.19
                             2205.94  2439.93  3379.56  4124.05  4239.57
                             4240.71  4305.59  4369.59  4413.35  4423.40
                             4436.82  4473.80  4485.62  4902.35  5063.04
                             5098.16

 Zero-point correction=                           0.203339 (Hartree/Particle)
 Thermal correction to Energy=                    0.216374
 Thermal correction to Enthalpy=                  0.217318
 Thermal correction to Gibbs Free Energy=         0.162378
 Sum of electronic and zero-point Energies=           -509.951794
 Sum of electronic and thermal Energies=              -509.938760
 Sum of electronic and thermal Enthalpies=            -509.937816
 Sum of electronic and thermal Free Energies=         -509.992756

                     E (Thermal)             CV                S
                      KCal/Mol        Cal/Mol-Kelvin    Cal/Mol-Kelvin
 Total                  135.777             45.090            115.631
 Electronic               0.000              0.000              0.000
 Translational            0.889              2.981             41.027
 Rotational               0.889              2.981             31.304
 Vibrational            133.999             39.129             43.301
 Vibration     1          0.594              1.982              5.491
 Vibration     2          0.595              1.980              5.115
 Vibration     3          0.598              1.969              4.191
 Vibration     4          0.600              1.963              3.893
 Vibration     5          0.608              1.936              3.162
 Vibration     6          0.617              1.908              2.732
 Vibration     7          0.617              1.906              2.711
 Vibration     8          0.625              1.879              2.435
 Vibration     9          0.648              1.808              1.945
 Vibration    10          0.650              1.802              1.912
 Vibration    11          0.697              1.659              1.376
 Vibration    12          0.720              1.594              1.209
 Vibration    13          0.738              1.545              1.103
 Vibration    14          0.755              1.500              1.016
 Vibration    15          0.793              1.401              0.853
 Vibration    16          0.821              1.331              0.757
 Vibration    17          0.875              1.205              0.609
 Vibration    18          0.946              1.057              0.470
 Vibration    19          0.972              1.005              0.428

                           ! Non-Optimized Parameters !
 Normal termination of Gaussian 16 at Tue Jun  1 03:16:23 2021.
