 Gaussian 16, Revision A.03,
 Gaussian 16:  ES64L-G16RevA.03 25-Dec-2016

 -----------------------------
 # opt freq b3lyp/6-31g(2df,p)
 -----------------------------

 -------------------
 Title Card Required
 -------------------
 Symbolic Z-matrix:
 Charge =  0 Multiplicity = 1

 SCF Done:  E(RB3LYP) =  -394.621534681     A.U. after   13 cycles
 SCF Done:  E(RB3LYP) =  -394.632423241     A.U. after   12 cycles
 SCF Done:  E(RB3LYP) =  -394.635467479     A.U. after   11 cycles
 SCF Done:  E(RB3LYP) =  -394.638134755     A.U. after   12 cycles
 SCF Done:  E(RB3LYP) =  -394.638942597     A.U. after   11 cycles
 SCF Done:  E(RB3LYP) =  -394.639235563     A.U. after   10 cycles
 SCF Done:  E(RB3LYP) =  -394.639286183     A.U. after   10 cycles
 SCF Done:  E(RB3LYP) =  -394.639294119     A.U. after    9 cycles
 SCF Done:  E(RB3LYP) =  -394.639297575     A.U. after    8 cycles
 SCF Done:  E(RB3LYP) =  -394.639298530     A.U. after    7 cycles
 SCF Done:  E(RB3LYP) =  -394.639298973     A.U. after    7 cycles
 SCF Done:  E(RB3LYP) =  -394.639299178     A.U. after    7 cycles
 Optimization completed.
    -- Stationary point found.
 Normal termination of Gaussian 16 at Mon May 31 18:09:47 2021.

 ----------------------------------------------------------------------
 #N Geom=AllCheck Guess=TCheck SCRF=Check GenChk RB3LYP/6-31G(2df,p) Fr
 eq
 ----------------------------------------------------------------------

 Structure from the checkpoint file:  "CNNCCpdNpNN.chk"
 -------------------
 Title Card Required
 -------------------
 Charge =  0 Multiplicity = 1

                         Standard orientation:
 ---------------------------------------------------------------------
 Center     Atomic      Atomic             Coordinates (Angstroms)
 Number     Number       Type             X           Y           Z
 ---------------------------------------------------------------------
      1          6           0        3.642428    0.282350   -0.312211
      2          7           0        2.527175   -0.570141    0.096695
      3          7           0        1.292852    0.217200    0.008754
      4          6           0        0.158671   -0.660542    0.284350
      5          6           0       -1.144194    0.115284    0.160681
      6          7           0       -1.276956    1.381055    0.276597
      7          7           0       -2.245313   -0.688970   -0.053275
      8          7           0       -3.490116   -0.089582   -0.364635
      9          1           0        4.576891   -0.240673   -0.092304
     10          1           0        3.648375    1.265901    0.181541
     11          1           0        3.599271    0.443195   -1.395920
     12          1           0        2.634375   -0.733462    1.097294
     13          1           0        1.232593    0.482617   -0.973616
     14          1           0        0.251002   -1.023786    1.316895
     15          1           0        0.145573   -1.557858   -0.356861
     16          1           0       -0.366288    1.790948    0.481863
     17          1           0       -2.084809   -1.531565   -0.585445
     18          1           0       -3.275745    0.836659   -0.740577
     19          1           0       -3.956169    0.098535    0.521253
 ---------------------------------------------------------------------

 SCF Done:  E(RB3LYP) =  -394.639299178     A.U. after    1 cycles

 The electronic state is 1-A.
 Alpha  occ. eigenvalues --  -14.36067 -14.35113 -14.34828 -14.33609 -14.28294
 Alpha  occ. eigenvalues --  -10.24589 -10.22114 -10.20784  -0.98813  -0.97023
 Alpha  occ. eigenvalues --   -0.87819  -0.81425  -0.78119  -0.68189  -0.65625
 Alpha  occ. eigenvalues --   -0.58526  -0.51798  -0.49441  -0.48772  -0.47610
 Alpha  occ. eigenvalues --   -0.45640  -0.44464  -0.43459  -0.41120  -0.39086
 Alpha  occ. eigenvalues --   -0.37791  -0.33473  -0.30990  -0.26949  -0.25691
 Alpha  occ. eigenvalues --   -0.22674  -0.20349
 Alpha virt. eigenvalues --    0.03259   0.07255   0.09045   0.10040   0.10854
 Alpha virt. eigenvalues --    0.13038   0.14072   0.15589   0.15806   0.17281
 Alpha virt. eigenvalues --    0.17546   0.18528   0.19879   0.20829   0.21991

 Mulliken charges:
               1
     1  C   -0.303491
     2  N   -0.265115
     3  N   -0.303904
     4  C   -0.197228
     5  C    0.334560
     6  N   -0.524689
     7  N   -0.302155
     8  N   -0.460398
     9  H    0.125748
    10  H    0.112712
    11  H    0.122677
    12  H    0.232439
    13  H    0.232294
    14  H    0.129944
    15  H    0.095995
    16  H    0.222995
    17  H    0.246393
    18  H    0.251892
    19  H    0.249331
 Sum of Mulliken charges =  -0.00000

 Dipole moment (field-independent basis, Debye):
    X=              2.1785    Y=             -1.1516    Z=              0.0985  Tot=              2.4661
 Quadrupole moment (field-independent basis, Debye-Ang):
   XX=            -48.7115   YY=            -51.6286   ZZ=            -46.9174
   XY=              2.1815   XZ=             -0.4805   YZ=             -1.8511

  Exact polarizability:  95.783   1.914  67.926   1.432   0.002  52.814
 Approx polarizability: 109.924   2.981 112.909   2.797   0.384  80.762

                      1                      2                      3
                      A                      A                      A
 Frequencies --     39.0277                75.1818               110.1185
 Red. masses --      3.0019                 2.6186                 2.5883
 Frc consts  --      0.0027                 0.0087                 0.0185
 IR Inten    --      1.8813                 4.9138                 0.5257

                      4                      5                      6
                      A                      A                      A
 Frequencies --    122.9032               193.1306               206.9458
 Red. masses --      3.2172                 1.1861                 2.8126
 Frc consts  --      0.0286                 0.0261                 0.0710
 IR Inten    --      0.3529                22.0711                 1.0960

                      7                      8                      9
                      A                      A                      A
 Frequencies --    267.8868               284.9421               331.8229
 Red. masses --      1.3527                 2.4561                 5.2699
 Frc consts  --      0.0572                 0.1175                 0.3419
 IR Inten    --      4.9285                 6.7743                 2.4681

                     10                     11                     12
                      A                      A                      A
 Frequencies --    366.9026               499.7507               555.0676
 Red. masses --      3.3976                 3.3577                 1.3660
 Frc consts  --      0.2695                 0.4941                 0.2480
 IR Inten    --     20.1415                 1.5914               140.6860

                     13                     14                     15
                      A                      A                      A
 Frequencies --    607.5467               716.0298               877.8110
 Red. masses --      3.0775                 3.2063                 1.7720
 Frc consts  --      0.6693                 0.9685                 0.8045
 IR Inten    --      2.9310                31.9039                 9.4514

                     16                     17                     18
                      A                      A                      A
 Frequencies --    889.0647               906.3487               937.7770
 Red. masses --      1.3054                 1.3180                 1.8494
 Frc consts  --      0.6079                 0.6379                 0.9582
 IR Inten    --     67.6736                72.2506                48.6689

                     19                     20                     21
                      A                      A                      A
 Frequencies --    977.9170               985.7981              1054.6219
 Red. masses --      2.3948                 2.0818                 1.8819
 Frc consts  --      1.3494                 1.1920                 1.2332
 IR Inten    --     21.4300                55.9687                21.5921

                     22                     23                     24
                      A                      A                      A
 Frequencies --   1086.5407              1127.8920              1137.3843
 Red. masses --      2.6704                 3.8991                 1.6946
 Frc consts  --      1.8574                 2.9224                 1.2916
 IR Inten    --     11.7729                 0.4228                31.2776

                     25                     26                     27
                      A                      A                      A
 Frequencies --   1172.3577              1195.4223              1223.8509
 Red. masses --      1.5627                 1.2377                 1.9537
 Frc consts  --      1.2655                 1.0421                 1.7241
 IR Inten    --      8.3901                15.8842                74.8123

                     28                     29                     30
                      A                      A                      A
 Frequencies --   1300.6844              1333.4505              1368.2200
 Red. masses --      1.4368                 1.4122                 1.1636
 Frc consts  --      1.4321                 1.4794                 1.2834
 IR Inten    --     12.1101                54.7692                 2.7739

                     31                     32                     33
                      A                      A                      A
 Frequencies --   1403.2113              1438.6911              1450.2636
 Red. masses --      1.5111                 1.2243                 1.1938
 Frc consts  --      1.7530                 1.4931                 1.4793
 IR Inten    --     28.7107                 4.6230                10.8343

                     34                     35                     36
                      A                      A                      A
 Frequencies --   1481.4109              1496.5314              1509.0311
 Red. masses --      1.0396                 1.0875                 1.7033
 Frc consts  --      1.3442                 1.4349                 2.2853
 IR Inten    --      6.9144                23.4274               103.0088

                     37                     38                     39
                      A                      A                      A
 Frequencies --   1515.3884              1537.3087              1704.4285
 Red. masses --      1.0644                 1.1219                 2.0013
 Frc consts  --      1.4401                 1.5622                 3.4255
 IR Inten    --      3.1674                 1.6581               133.8695

                     40                     41                     42
                      A                      A                      A
 Frequencies --   1716.8589              2962.4560              2987.9407
 Red. masses --      1.7445                 1.0694                 1.0457
 Frc consts  --      3.0297                 5.5294                 5.5003
 IR Inten    --     20.5500                65.8723                58.1152

                     43                     44                     45
                      A                      A                      A
 Frequencies --   3029.6055              3061.0251              3114.0002
 Red. masses --      1.0891                 1.0916                 1.0988
 Frc consts  --      5.8897                 6.0261                 6.2775
 IR Inten    --     18.8110                34.5424                20.8105

                     46                     47                     48
                      A                      A                      A
 Frequencies --   3428.0404              3447.8312              3467.9764
 Red. masses --      1.0508                 1.0744                 1.0746
 Frc consts  --      7.2753                 7.5248                 7.6147
 IR Inten    --      7.4538                 0.4791                 0.3283

                     49                     50                     51
                      A                      A                      A
 Frequencies --   3491.4324              3498.1588              3597.0713
 Red. masses --      1.0735                 1.0889                 1.0767
 Frc consts  --      7.7099                 7.8512                 8.2082
 IR Inten    --     13.6173                 2.4165                18.5112

 - Thermochemistry -
 -------------------
 Temperature   298.150 Kelvin.  Pressure   1.00000 Atm.
 Atom     1 has atomic number  6 and mass  12.00000

 Molecular mass:   117.10145 amu.
 Principal axes and moments of inertia in atomic units:
                           1         2         3
     Eigenvalues --   251.715362328.314222487.38880
           X            0.99999   0.00452  -0.00240
           Y           -0.00459   0.99960  -0.02783
           Z            0.00227   0.02784   0.99961
 This molecule is an asymmetric top.
 Rotational symmetry number  1.
 Rotational temperatures (Kelvin)      0.34409     0.03720     0.03482
 Rotational constants (GHZ):           7.16977     0.77513     0.72556
 Zero-point vibrational energy     438377.9 (Joules/Mol)
                                  104.77483 (Kcal/Mol)
 Warning -- explicit consideration of  13 degrees of freedom as
           vibrations may cause significant error
 Vibrational temperatures:     56.15   108.17   158.44   176.83   277.87
          (Kelvin)            297.75   385.43   409.97   477.42   527.89
                              719.03   798.62   874.12  1030.21  1262.97
                             1279.17  1304.03  1349.25  1407.00  1418.34
                             1517.37  1563.29  1622.79  1636.44  1686.76
                             1719.95  1760.85  1871.39  1918.54  1968.56
                             2018.91  2069.96  2086.61  2131.42  2153.17
                             2171.16  2180.31  2211.84  2452.29  2470.18
                             4262.31  4298.98  4358.93  4404.13  4480.35
                             4932.19  4960.66  4989.64  5023.39  5033.07
                             5175.38

 Zero-point correction=                           0.166969 (Hartree/Particle)
 Thermal correction to Energy=                    0.176792
 Thermal correction to Enthalpy=                  0.177736
 Thermal correction to Gibbs Free Energy=         0.131383
 Sum of electronic and zero-point Energies=           -394.472330
 Sum of electronic and thermal Energies=              -394.462507
 Sum of electronic and thermal Enthalpies=            -394.461563
 Sum of electronic and thermal Free Energies=         -394.507916

                     E (Thermal)             CV                S
                      KCal/Mol        Cal/Mol-Kelvin    Cal/Mol-Kelvin
 Total                  110.939             33.884             97.559
 Electronic               0.000              0.000              0.000
 Translational            0.889              2.981             40.189
 Rotational               0.889              2.981             28.768
 Vibrational            109.161             27.922             28.602
 Vibration     1          0.594              1.981              5.308
 Vibration     2          0.599              1.966              4.013
 Vibration     3          0.606              1.941              3.267
 Vibration     4          0.610              1.930              3.054
 Vibration     5          0.635              1.849              2.198
 Vibration     6          0.641              1.830              2.070
 Vibration     7          0.673              1.732              1.610
 Vibration     8          0.683              1.702              1.504
 Vibration     9          0.714              1.612              1.251
 Vibration    10          0.740              1.540              1.093
 Vibration    11          0.855              1.251              0.659
 Vibration    12          0.911              1.129              0.534
 Vibration    13          0.966              1.016              0.437

 Optimization completed.
    -- Stationary point found.
 Normal termination of Gaussian 16 at Mon May 31 18:28:11 2021.
