 Gaussian 16, Revision A.03,
 Gaussian 16:  ES64L-G16RevA.03 25-Dec-2016

 -----------------------------
 # opt freq b3lyp/6-31g(2df,p)
 -----------------------------

 -------------------
 Title Card Required
 -------------------
 Symbolic Z-matrix:
 Charge =  0 Multiplicity = 1

 SCF Done:  E(RB3LYP) =  -448.798085197     A.U. after   14 cycles
 SCF Done:  E(RB3LYP) =  -448.804314311     A.U. after   12 cycles
 SCF Done:  E(RB3LYP) =  -448.807378382     A.U. after   12 cycles
 SCF Done:  E(RB3LYP) =  -448.811004427     A.U. after   13 cycles
 SCF Done:  E(RB3LYP) =  -448.812887363     A.U. after   12 cycles
 SCF Done:  E(RB3LYP) =  -448.814446940     A.U. after   12 cycles
 SCF Done:  E(RB3LYP) =  -448.815379377     A.U. after   12 cycles
 SCF Done:  E(RB3LYP) =  -448.816154192     A.U. after   12 cycles
 SCF Done:  E(RB3LYP) =  -448.816704900     A.U. after   11 cycles
 SCF Done:  E(RB3LYP) =  -448.816933020     A.U. after   10 cycles
 SCF Done:  E(RB3LYP) =  -448.817047134     A.U. after   11 cycles
 SCF Done:  E(RB3LYP) =  -448.817124055     A.U. after   10 cycles
 SCF Done:  E(RB3LYP) =  -448.817167241     A.U. after    9 cycles
 SCF Done:  E(RB3LYP) =  -448.817174632     A.U. after    8 cycles
 SCF Done:  E(RB3LYP) =  -448.817176940     A.U. after    8 cycles
 SCF Done:  E(RB3LYP) =  -448.817177432     A.U. after    7 cycles
 SCF Done:  E(RB3LYP) =  -448.817177592     A.U. after    7 cycles
 SCF Done:  E(RB3LYP) =  -448.817177655     A.U. after    7 cycles
 Optimization completed.
    -- Stationary point found.
 Normal termination of Gaussian 16 at Tue Jun  1 06:12:51 2021.

 ----------------------------------------------------------------------
 #N Geom=AllCheck Guess=TCheck SCRF=Check GenChk RB3LYP/6-31G(2df,p) Fr
 eq
 ----------------------------------------------------------------------

 Structure from the checkpoint file:  "CNNCpNpdNNdCN.chk"
 -------------------
 Title Card Required
 -------------------
 Charge =  0 Multiplicity = 1

                         Standard orientation:
 ---------------------------------------------------------------------
 Center     Atomic      Atomic             Coordinates (Angstroms)
 Number     Number       Type             X           Y           Z
 ---------------------------------------------------------------------
      1          6           0       -3.263631   -0.701289   -0.899084
      2          7           0       -2.822191    0.177477    0.182948
      3          7           0       -1.643466   -0.265678    0.824709
      4          6           0       -0.444236    0.258234    0.329099
      5          7           0       -0.477590    1.568779   -0.050304
      6          7           0        0.593113   -0.514694    0.361356
      7          7           0        1.744456    0.147726   -0.083101
      8          6           0        2.806083   -0.549925    0.045588
      9          7           0        4.055537   -0.047140   -0.266658
     10          1           0       -4.222199   -0.337486   -1.281559
     11          1           0       -3.387571   -1.751906   -0.587231
     12          1           0       -2.531825   -0.671290   -1.711621
     13          1           0       -3.542094    0.254561    0.892442
     14          1           0       -1.560132   -1.275480    0.925851
     15          1           0       -1.380243    1.907804   -0.343847
     16          1           0        0.342530    1.853223   -0.563538
     17          1           0        2.794056   -1.558762    0.464241
     18          1           0        4.027177    0.796159   -0.823998
     19          1           0        4.721982   -0.724239   -0.607011
 ---------------------------------------------------------------------

 SCF Done:  E(RB3LYP) =  -448.817177655     A.U. after    1 cycles

 The electronic state is 1-A.
 Alpha  occ. eigenvalues --  -14.35743 -14.35202 -14.33056 -14.31705 -14.30799
 Alpha  occ. eigenvalues --  -14.29038 -10.24995 -10.22187 -10.21231  -1.00074
 Alpha  occ. eigenvalues --   -0.95668  -0.91046  -0.87183  -0.81493  -0.75718
 Alpha  occ. eigenvalues --   -0.67162  -0.59213  -0.56865  -0.53919  -0.51444
 Alpha  occ. eigenvalues --   -0.50562  -0.47654  -0.45443  -0.43929  -0.43562
 Alpha  occ. eigenvalues --   -0.40982  -0.39472  -0.38491  -0.34807  -0.32545
 Alpha  occ. eigenvalues --   -0.26893  -0.25361  -0.25127  -0.20647  -0.17068
 Alpha virt. eigenvalues --    0.03433   0.07725   0.08973   0.09820   0.12184
 Alpha virt. eigenvalues --    0.12734   0.13128   0.14103   0.15585   0.17080
 Alpha virt. eigenvalues --    0.18085   0.18391   0.19029   0.22731   0.26644

 Mulliken charges:
               1
     1  C   -0.308725
     2  N   -0.268660
     3  N   -0.331159
     4  C    0.473570
     5  N   -0.536890
     6  N   -0.337339
     7  N   -0.227334
     8  C    0.108185
     9  N   -0.509600
    10  H    0.124244
    11  H    0.106304
    12  H    0.140868
    13  H    0.240451
    14  H    0.228482
    15  H    0.251526
    16  H    0.256233
    17  H    0.095543
    18  H    0.246242
    19  H    0.248059
 Sum of Mulliken charges =  -0.00000

 Dipole moment (field-independent basis, Debye):
    X=             -1.2834    Y=             -0.6040    Z=             -2.2367  Tot=              2.6485
 Quadrupole moment (field-independent basis, Debye-Ang):
   XX=            -33.9732   YY=            -50.7632   ZZ=            -54.0527
   XY=             -0.6158   XZ=             -5.5384   YZ=             -2.6423

  Exact polarizability: 141.828  -8.867  70.240  -4.053  -5.449  51.437
 Approx polarizability: 185.277 -22.298 110.241  -7.705  -9.019  76.986

                      1                      2                      3
                      A                      A                      A
 Frequencies --     56.5111                96.1176               110.2098
 Red. masses --      3.8475                 3.0877                 4.1970
 Frc consts  --      0.0072                 0.0168                 0.0300
 IR Inten    --      4.6593                 0.3781                17.7258

                      4                      5                      6
                      A                      A                      A
 Frequencies --    139.1002               162.2955               223.8892
 Red. masses --      3.0104                 2.3745                 1.1690
 Frc consts  --      0.0343                 0.0369                 0.0345
 IR Inten    --      0.7265                 6.2992                 0.6561

                      7                      8                      9
                      A                      A                      A
 Frequencies --    327.2085               354.9313               372.8156
 Red. masses --      2.7162                 2.6728                 3.8110
 Frc consts  --      0.1713                 0.1984                 0.3121
 IR Inten    --      0.7164                42.5958                19.4681

                     10                     11                     12
                      A                      A                      A
 Frequencies --    394.5893               428.9805               441.0339
 Red. masses --      3.3120                 1.5921                 2.3538
 Frc consts  --      0.3038                 0.1726                 0.2698
 IR Inten    --      4.3672                89.6718                10.3240

                     13                     14                     15
                      A                      A                      A
 Frequencies --    512.4370               553.3452               618.9263
 Red. masses --      1.2403                 1.2696                 3.7304
 Frc consts  --      0.1919                 0.2290                 0.8419
 IR Inten    --    163.2844                42.3477                97.3320

                     16                     17                     18
                      A                      A                      A
 Frequencies --    629.2071               651.0661               716.7251
 Red. masses --      2.4705                 1.4804                 2.5662
 Frc consts  --      0.5763                 0.3697                 0.7767
 IR Inten    --     19.9486               295.1661                12.2411

                     19                     20                     21
                      A                      A                      A
 Frequencies --    756.7196               869.3333               962.4648
 Red. masses --      3.2294                 1.4388                 2.3437
 Frc consts  --      1.0895                 0.6406                 1.2792
 IR Inten    --    129.9005                92.2025                 9.9683

                     22                     23                     24
                      A                      A                      A
 Frequencies --    978.5458               984.3457              1031.0549
 Red. masses --      1.7744                 2.0450                 2.2892
 Frc consts  --      1.0011                 1.1675                 1.4338
 IR Inten    --      6.3900                25.0006                 4.7331

                     25                     26                     27
                      A                      A                      A
 Frequencies --   1118.9962              1132.6369              1155.1920
 Red. masses --      1.6263                 2.8454                 1.7862
 Frc consts  --      1.1998                 2.1507                 1.4044
 IR Inten    --     12.2212                 7.8182                22.6007

                     28                     29                     30
                      A                      A                      A
 Frequencies --   1180.0100              1236.8578              1288.3341
 Red. masses --      1.8355                 2.0234                 2.0376
 Frc consts  --      1.5059                 1.8238                 1.9926
 IR Inten    --     15.9010                23.0336                60.7368

                     31                     32                     33
                      A                      A                      A
 Frequencies --   1362.6585              1429.1751              1442.9728
 Red. masses --      1.5931                 1.3718                 1.7138
 Frc consts  --      1.7429                 1.6509                 2.1024
 IR Inten    --     16.2884                30.6236                15.7522

                     34                     35                     36
                      A                      A                      A
 Frequencies --   1456.5468              1488.0296              1502.1568
 Red. masses --      1.2240                 1.0696                 1.1222
 Frc consts  --      1.5300                 1.3954                 1.4920
 IR Inten    --      6.9953                 3.1673                 0.0554

                     37                     38                     39
                      A                      A                      A
 Frequencies --   1533.7419              1569.7152              1626.1288
 Red. masses --      1.2210                 1.5316                 1.1908
 Frc consts  --      1.6923                 2.2236                 1.8552
 IR Inten    --      4.8644               165.6086                25.0552

                     40                     41                     42
                      A                      A                      A
 Frequencies --   1712.4648              1731.0149              2967.6746
 Red. masses --      5.0584                 6.0428                 1.0540
 Frc consts  --      8.7399                10.6681                 5.4690
 IR Inten    --    474.7478               343.6818                66.4874

                     43                     44                     45
                      A                      A                      A
 Frequencies --   3072.7097              3101.8263              3116.3167
 Red. masses --      1.0781                 1.0883                 1.1038
 Frc consts  --      5.9973                 6.1693                 6.3155
 IR Inten    --     27.7417                27.1705                22.6853

                     46                     47                     48
                      A                      A                      A
 Frequencies --   3477.1770              3525.0821              3552.9298
 Red. masses --      1.0739                 1.0755                 1.0464
 Frc consts  --      7.6500                 7.8738                 7.7829
 IR Inten    --      5.4782                 1.6533                16.5827

                     49                     50                     51
                      A                      A                      A
 Frequencies --   3574.9945              3665.0619              3701.5863
 Red. masses --      1.0430                 1.0982                 1.1023
 Frc consts  --      7.8537                 8.6916                 8.8984
 IR Inten    --     21.6016                13.7460                77.8169

 - Thermochemistry -
 -------------------
 Temperature   298.150 Kelvin.  Pressure   1.00000 Atm.
 Atom     1 has atomic number  6 and mass  12.00000

 Molecular mass:   130.09669 amu.
 Principal axes and moments of inertia in atomic units:
                           1         2         3
     Eigenvalues --   351.906132810.132952932.25299
           X            0.99998   0.00535   0.00352
           Y           -0.00525   0.99962  -0.02691
           Z           -0.00366   0.02689   0.99963
 This molecule is an asymmetric top.
 Rotational symmetry number  1.
 Rotational temperatures (Kelvin)      0.24613     0.03082     0.02954
 Rotational constants (GHZ):           5.12847     0.64223     0.61548
 Zero-point vibrational energy     419254.3 (Joules/Mol)
                                  100.20418 (Kcal/Mol)
 Warning -- explicit consideration of  15 degrees of freedom as
           vibrations may cause significant error
 Vibrational temperatures:     81.31   138.29   158.57   200.13   233.51
          (Kelvin)            322.13   470.78   510.67   536.40   567.73
                              617.21   634.55   737.28   796.14   890.50
                              905.29   936.74  1031.21  1088.75  1250.78
                             1384.77  1407.91  1416.25  1483.46  1609.99
                             1629.61  1662.06  1697.77  1779.56  1853.63
                             1960.56  2056.26  2076.12  2095.65  2140.94
                             2161.27  2206.71  2258.47  2339.64  2463.85
                             2490.54  4269.82  4420.94  4462.84  4483.68
                             5002.88  5071.81  5111.87  5143.62  5273.21
                             5325.76

 Zero-point correction=                           0.159686 (Hartree/Particle)
 Thermal correction to Energy=                    0.169959
 Thermal correction to Enthalpy=                  0.170904
 Thermal correction to Gibbs Free Energy=         0.124065
 Sum of electronic and zero-point Energies=           -448.657492
 Sum of electronic and thermal Energies=              -448.647218
 Sum of electronic and thermal Enthalpies=            -448.646274
 Sum of electronic and thermal Free Energies=         -448.693113

                     E (Thermal)             CV                S
                      KCal/Mol        Cal/Mol-Kelvin    Cal/Mol-Kelvin
 Total                  106.651             37.386             98.581
 Electronic               0.000              0.000              0.000
 Translational            0.889              2.981             40.502
 Rotational               0.889              2.981             29.451
 Vibrational            104.874             31.424             28.627
 Vibration     1          0.596              1.975              4.575
 Vibration     2          0.603              1.952              3.532
 Vibration     3          0.606              1.941              3.265
 Vibration     4          0.615              1.914              2.816
 Vibration     5          0.622              1.889              2.523
 Vibration     6          0.649              1.805              1.927
 Vibration     7          0.711              1.621              1.274
 Vibration     8          0.731              1.565              1.144
 Vibration     9          0.744              1.528              1.068
 Vibration    10          0.762              1.482              0.983
 Vibration    11          0.790              1.407              0.862
 Vibration    12          0.801              1.381              0.823
 Vibration    13          0.868              1.222              0.628
 Vibration    14          0.909              1.132              0.537
 Vibration    15          0.979              0.992              0.418

 Optimization completed.
    -- Stationary point found.
 Normal termination of Gaussian 16 at Tue Jun  1 06:46:46 2021.
