 Gaussian 16, Revision A.03,
 Gaussian 16:  ES64L-G16RevA.03 25-Dec-2016

 -----------------------------
 # opt freq b3lyp/6-31g(2df,p)
 -----------------------------

 -------------------
 Title Card Required
 -------------------
 Symbolic Z-matrix:
 Charge =  0 Multiplicity = 1

 SCF Done:  E(RB3LYP) =  -414.259154869     A.U. after   15 cycles
 SCF Done:  E(RB3LYP) =  -414.286858697     A.U. after   13 cycles
 SCF Done:  E(RB3LYP) =  -414.288186973     A.U. after   12 cycles
 SCF Done:  E(RB3LYP) =  -414.288448516     A.U. after   11 cycles
 SCF Done:  E(RB3LYP) =  -414.288517975     A.U. after   11 cycles
 SCF Done:  E(RB3LYP) =  -414.288560304     A.U. after   11 cycles
 SCF Done:  E(RB3LYP) =  -414.288581485     A.U. after   11 cycles
 SCF Done:  E(RB3LYP) =  -414.288613865     A.U. after   11 cycles
 SCF Done:  E(RB3LYP) =  -414.288663819     A.U. after   11 cycles
 SCF Done:  E(RB3LYP) =  -414.289165838     A.U. after   14 cycles
 SCF Done:  E(RB3LYP) =  -414.276061699     A.U. after   13 cycles
 SCF Done:  E(RB3LYP) =  -414.275565658     A.U. after   13 cycles
 SCF Done:  E(RB3LYP) =  -414.291944719     A.U. after   10 cycles
 SCF Done:  E(RB3LYP) =  -414.292300342     A.U. after   11 cycles
 SCF Done:  E(RB3LYP) =  -414.292356699     A.U. after   11 cycles
 SCF Done:  E(RB3LYP) =  -414.292377076     A.U. after    9 cycles
 SCF Done:  E(RB3LYP) =  -414.292379156     A.U. after    9 cycles
 SCF Done:  E(RB3LYP) =  -414.292379798     A.U. after    8 cycles
 SCF Done:  E(RB3LYP) =  -414.292379869     A.U. after    7 cycles
 Optimization completed.
    -- Stationary point found.
 Normal termination of Gaussian 16 at Tue Jun  1 12:30:47 2021.

 ----------------------------------------------------------------------
 #N Geom=AllCheck Guess=TCheck SCRF=Check GenChk RB3LYP/6-31G(2df,p) Fr
 eq
 ----------------------------------------------------------------------

 Structure from the checkpoint file:  "CNNCpCtNpCCtN.chk"
 -------------------
 Title Card Required
 -------------------
 Charge =  0 Multiplicity = 1

                         Standard orientation:
 ---------------------------------------------------------------------
 Center     Atomic      Atomic             Coordinates (Angstroms)
 Number     Number       Type             X           Y           Z
 ---------------------------------------------------------------------
      1          6           0       -2.972231   -0.756889   -0.743277
      2          7           0       -2.282344    0.175214    0.139687
      3          7           0       -1.129091   -0.358319    0.771162
      4          6           0        0.078532   -0.070147   -0.005725
      5          6           0        0.297439    1.383694   -0.046362
      6          7           0        0.506281    2.518569   -0.077245
      7          6           0        1.270175   -0.780976    0.683686
      8          6           0        2.508230   -0.687696   -0.082500
      9          7           0        3.483008   -0.629973   -0.699004
     10          1           0       -3.893017   -0.286990   -1.099809
     11          1           0       -3.236384   -1.713336   -0.257828
     12          1           0       -2.351380   -0.977214   -1.617853
     13          1           0       -2.899898    0.502372    0.872858
     14          1           0       -1.210475   -1.371037    0.883821
     15          1           0        0.018434   -0.419477   -1.048927
     16          1           0        1.020331   -1.841135    0.807985
     17          1           0        1.414535   -0.359530    1.682613
 ---------------------------------------------------------------------

 SCF Done:  E(RB3LYP) =  -414.292379869     A.U. after    1 cycles

 The electronic state is 1-A.
 Alpha  occ. eigenvalues --  -14.38076 -14.36837 -14.34125 -14.33547 -10.28657
 Alpha  occ. eigenvalues --  -10.26244 -10.23417 -10.22878 -10.22488  -1.00781
 Alpha  occ. eigenvalues --   -0.91765  -0.90693  -0.86482  -0.79210  -0.71259
 Alpha  occ. eigenvalues --   -0.68105  -0.56136  -0.55058  -0.52928  -0.49697
 Alpha  occ. eigenvalues --   -0.48238  -0.46540  -0.44296  -0.43335  -0.40569
 Alpha  occ. eigenvalues --   -0.36790  -0.36317  -0.34614  -0.33893  -0.33587
 Alpha  occ. eigenvalues --   -0.32974  -0.28104  -0.25946
 Alpha virt. eigenvalues --    0.01294   0.01459   0.02014   0.02937   0.07310
 Alpha virt. eigenvalues --    0.08262   0.09116   0.10621   0.12698   0.13283
 Alpha virt. eigenvalues --    0.14746   0.15330   0.17393   0.18850   0.20101

 Mulliken charges:
               1
     1  C   -0.319527
     2  N   -0.242935
     3  N   -0.298556
     4  C   -0.091642
     5  C    0.340323
     6  N   -0.313691
     7  C   -0.362130
     8  C    0.268595
     9  N   -0.289074
    10  H    0.140505
    11  H    0.103028
    12  H    0.133943
    13  H    0.245948
    14  H    0.214886
    15  H    0.130828
    16  H    0.155680
    17  H    0.183820
 Sum of Mulliken charges =   0.00000

 Dipole moment (field-independent basis, Debye):
    X=             -4.9414    Y=             -4.7275    Z=              1.6329  Tot=              7.0309
 Quadrupole moment (field-independent basis, Debye-Ang):
   XX=            -59.8289   YY=            -60.0899   ZZ=            -51.9078
   XY=              1.1070   XZ=              5.2851   YZ=             -0.8027

  Exact polarizability:  91.598   1.893  73.553  -3.803  -1.173  58.766
 Approx polarizability: 120.521   4.305 117.187 -13.138  -2.741  92.914

                      1                      2                      3
                      A                      A                      A
 Frequencies --     51.9538                63.2586                98.8498
 Red. masses --      5.0130                 3.5708                 5.4170
 Frc consts  --      0.0080                 0.0084                 0.0312
 IR Inten    --      1.6570                 3.4461                 3.0872

                      4                      5                      6
                      A                      A                      A
 Frequencies --    140.2281               164.9193               229.8922
 Red. masses --      2.8012                 3.1996                 1.5583
 Frc consts  --      0.0325                 0.0513                 0.0485
 IR Inten    --      3.4925                 2.6968                 4.2932

                      7                      8                      9
                      A                      A                      A
 Frequencies --    254.6086               300.2455               377.7330
 Red. masses --      3.8974                 3.7060                 3.6948
 Frc consts  --      0.1489                 0.1968                 0.3106
 IR Inten    --      2.6296                 1.4238                 9.2941

                     10                     11                     12
                      A                      A                      A
 Frequencies --    390.9575               450.5436               484.3282
 Red. masses --      3.5060                 2.9570                 9.2916
 Frc consts  --      0.3157                 0.3536                 1.2842
 IR Inten    --      1.0942                 5.8403                 2.2823

                     13                     14                     15
                      A                      A                      A
 Frequencies --    579.2732               625.8426               750.9069
 Red. masses --      3.9220                 3.6504                 2.0284
 Frc consts  --      0.7754                 0.8424                 0.6739
 IR Inten    --      6.0561                19.4730                44.1222

                     16                     17                     18
                      A                      A                      A
 Frequencies --    811.7075               880.0711               940.0329
 Red. masses --      2.5641                 1.6567                 2.7664
 Frc consts  --      0.9954                 0.7560                 1.4403
 IR Inten    --     25.7270                68.3223                 4.5903

                     19                     20                     21
                      A                      A                      A
 Frequencies --    980.7622              1011.8997              1058.4011
 Red. masses --      2.6602                 2.1888                 3.0351
 Frc consts  --      1.5076                 1.3205                 2.0032
 IR Inten    --      4.8382                 5.6438                 9.8896

                     22                     23                     24
                      A                      A                      A
 Frequencies --   1114.8824              1140.3213              1170.0566
 Red. masses --      1.9114                 3.3950                 1.7066
 Frc consts  --      1.3998                 2.6011                 1.3766
 IR Inten    --      2.0201                10.9915                 4.2332

                     25                     26                     27
                      A                      A                      A
 Frequencies --   1214.1505              1231.7995              1298.2745
 Red. masses --      1.1777                 2.0302                 1.2279
 Frc consts  --      1.0229                 1.8149                 1.2194
 IR Inten    --      1.3336                 9.4942                 2.0507

                     28                     29                     30
                      A                      A                      A
 Frequencies --   1351.8091              1372.0058              1450.3250
 Red. masses --      1.3723                 1.4403                 1.1732
 Frc consts  --      1.4775                 1.5974                 1.4539
 IR Inten    --      3.2546                11.4798                 1.0801

                     31                     32                     33
                      A                      A                      A
 Frequencies --   1464.1997              1481.7195              1492.1426
 Red. masses --      1.0858                 1.0680                 1.1055
 Frc consts  --      1.3716                 1.3815                 1.4502
 IR Inten    --      5.7613                10.0645                 3.1718

                     34                     35                     36
                      A                      A                      A
 Frequencies --   1507.1564              1528.8213              2371.7575
 Red. masses --      1.1144                 1.1270                12.6131
 Frc consts  --      1.4915                 1.5519                41.8036
 IR Inten    --      3.4908                 7.0242                 5.0941

                     37                     38                     39
                      A                      A                      A
 Frequencies --   2372.8629              2949.0798              2978.2395
 Red. masses --     12.6572                 1.0575                 1.0810
 Frc consts  --     41.9888                 5.4187                 5.6493
 IR Inten    --      0.2895                72.9224                16.6980

                     40                     41                     42
                      A                      A                      A
 Frequencies --   3048.1133              3067.9529              3104.4349
 Red. masses --      1.0622                 1.0764                 1.0985
 Frc consts  --      5.8148                 5.9692                 6.2378
 IR Inten    --      5.1913                26.0169                 0.7536

                     43                     44                     45
                      A                      A                      A
 Frequencies --   3115.9007              3401.1089              3541.0139
 Red. masses --      1.1011                 1.0731                 1.0758
 Frc consts  --      6.2988                 7.3137                 7.9477
 IR Inten    --     17.5844                11.2948                 3.6435

 - Thermochemistry -
 -------------------
 Temperature   298.150 Kelvin.  Pressure   1.00000 Atm.
 Atom     1 has atomic number  6 and mass  12.00000

 Molecular mass:   124.07490 amu.
 Principal axes and moments of inertia in atomic units:
                           1         2         3
     Eigenvalues --   666.826811956.285312352.98952
           X            0.99964   0.02019   0.01787
           Y           -0.02019   0.99980   0.00029
           Z           -0.01786  -0.00065   0.99984
 This molecule is an asymmetric top.
 Rotational symmetry number  1.
 Warning -- assumption of classical behavior for rotation
           may cause significant error
 Rotational temperatures (Kelvin)      0.12989     0.04427     0.03681
 Rotational constants (GHZ):           2.70646     0.92253     0.76700
 Zero-point vibrational energy     355377.9 (Joules/Mol)
                                   84.93735 (Kcal/Mol)
 Warning -- explicit consideration of  13 degrees of freedom as
           vibrations may cause significant error
 Vibrational temperatures:     74.75    91.02   142.22   201.76   237.28
          (Kelvin)            330.76   366.33   431.99   543.47   562.50
                              648.23   696.84   833.44   900.45  1080.39
                             1167.87  1266.23  1352.50  1411.10  1455.90
                             1522.80  1604.07  1640.67  1683.45  1746.89
                             1772.28  1867.93  1944.95  1974.01  2086.69
                             2106.66  2131.86  2146.86  2168.46  2199.63
                             3412.43  3414.02  4243.07  4285.02  4385.56
                             4414.10  4466.59  4483.09  4893.44  5094.73

 Zero-point correction=                           0.135356 (Hartree/Particle)
 Thermal correction to Energy=                    0.145257
 Thermal correction to Enthalpy=                  0.146201
 Thermal correction to Gibbs Free Energy=         0.099390
 Sum of electronic and zero-point Energies=           -414.157024
 Sum of electronic and thermal Energies=              -414.147123
 Sum of electronic and thermal Enthalpies=            -414.146179
 Sum of electronic and thermal Free Energies=         -414.192989

                     E (Thermal)             CV                S
                      KCal/Mol        Cal/Mol-Kelvin    Cal/Mol-Kelvin
 Total                   91.150             33.999             98.521
 Electronic               0.000              0.000              0.000
 Translational            0.889              2.981             40.361
 Rotational               0.889              2.981             29.508
 Vibrational             89.373             28.038             28.652
 Vibration     1          0.596              1.977              4.742
 Vibration     2          0.597              1.972              4.353
 Vibration     3          0.604              1.950              3.477
 Vibration     4          0.615              1.913              2.801
 Vibration     5          0.623              1.886              2.493
 Vibration     6          0.652              1.795              1.880
 Vibration     7          0.665              1.755              1.698
 Vibration     8          0.693              1.673              1.416
 Vibration     9          0.748              1.518              1.048
 Vibration    10          0.759              1.490              0.996
 Vibration    11          0.809              1.360              0.794
 Vibration    12          0.840              1.285              0.698
 Vibration    13          0.936              1.076              0.487

 Optimization completed.
    -- Stationary point found.
 Normal termination of Gaussian 16 at Tue Jun  1 12:58:51 2021.
