 Gaussian 16, Revision A.03,
 Gaussian 16:  ES64L-G16RevA.03 25-Dec-2016

 -----------------------------
 # opt freq b3lyp/6-31g(2df,p)
 -----------------------------

 -------------------
 Title Card Required
 -------------------
 Symbolic Z-matrix:
 Charge =  0 Multiplicity = 1

 SCF Done:  E(RB3LYP) =  -456.021039112     A.U. after   14 cycles
 SCF Done:  E(RB3LYP) =  -456.027360438     A.U. after   12 cycles
 SCF Done:  E(RB3LYP) =  -456.028631255     A.U. after   12 cycles
 SCF Done:  E(RB3LYP) =  -456.030344867     A.U. after   12 cycles
 SCF Done:  E(RB3LYP) =  -456.030282001     A.U. after   15 cycles
 SCF Done:  E(RB3LYP) =  -456.032167098     A.U. after   12 cycles
 SCF Done:  E(RB3LYP) =  -456.032547684     A.U. after   11 cycles
 SCF Done:  E(RB3LYP) =  -456.032847107     A.U. after   12 cycles
 SCF Done:  E(RB3LYP) =  -456.032865364     A.U. after   10 cycles
 SCF Done:  E(RB3LYP) =  -456.032874006     A.U. after    8 cycles
 SCF Done:  E(RB3LYP) =  -456.032876762     A.U. after    8 cycles
 SCF Done:  E(RB3LYP) =  -456.032877183     A.U. after    7 cycles
 SCF Done:  E(RB3LYP) =  -456.032877407     A.U. after    7 cycles
 Optimization completed.
    -- Stationary point found.
 Normal termination of Gaussian 16 at Mon May 31 20:43:15 2021.

 ----------------------------------------------------------------------
 #N Geom=AllCheck Guess=TCheck SCRF=Check GenChk RB3LYP/6-31G(2df,p) Fr
 eq
 ----------------------------------------------------------------------

 Structure from the checkpoint file:  "CNNdCCdCCpNpNC.chk"
 -------------------
 Title Card Required
 -------------------
 Charge =  0 Multiplicity = 1

                         Standard orientation:
 ---------------------------------------------------------------------
 Center     Atomic      Atomic             Coordinates (Angstroms)
 Number     Number       Type             X           Y           Z
 ---------------------------------------------------------------------
      1          6           0        5.074827   -0.269808    0.420603
      2          7           0        3.876312   -0.042888   -0.345539
      3          7           0        2.693553   -0.096584    0.262157
      4          6           0        1.620849    0.105778   -0.425416
      5          6           0        0.321932    0.051553    0.201732
      6          6           0       -0.844919    0.242634   -0.431611
      7          6           0       -2.194089    0.230023    0.235432
      8          7           0       -2.862498    1.541413    0.241119
      9          7           0       -3.073970   -0.695565   -0.469854
     10          6           0       -4.304705   -1.014906    0.248481
     11          1           0        5.933128   -0.186140   -0.250518
     12          1           0        5.085624   -1.269955    0.871905
     13          1           0        5.190665    0.469679    1.223012
     14          1           0        3.930659    0.153312   -1.337419
     15          1           0        1.668736    0.321306   -1.501725
     16          1           0        0.332293   -0.162213    1.269122
     17          1           0       -0.859100    0.453258   -1.501510
     18          1           0       -2.058079   -0.045126    1.299032
     19          1           0       -2.956221    1.855455   -0.722611
     20          1           0       -2.269502    2.215853    0.716522
     21          1           0       -2.555976   -1.545101   -0.664841
     22          1           0       -4.881097   -0.099073    0.393223
     23          1           0       -4.136446   -1.466017    1.242790
     24          1           0       -4.901831   -1.711519   -0.347491
 ---------------------------------------------------------------------

 SCF Done:  E(RB3LYP) =  -456.032877407     A.U. after    1 cycles

 The electronic state is 1-A.
 Alpha  occ. eigenvalues --  -14.36697 -14.35632 -14.30294 -14.30043 -10.22687
 Alpha  occ. eigenvalues --  -10.21704 -10.20066 -10.18462 -10.17964 -10.17172
 Alpha  occ. eigenvalues --   -1.00475  -0.91445  -0.83901  -0.83522  -0.76753
 Alpha  occ. eigenvalues --   -0.69420  -0.66397  -0.62339  -0.59176  -0.55689
 Alpha  occ. eigenvalues --   -0.52375  -0.50109  -0.48141  -0.45234  -0.44784
 Alpha  occ. eigenvalues --   -0.42852  -0.42455  -0.40716  -0.40071  -0.38089
 Alpha  occ. eigenvalues --   -0.37583  -0.36948  -0.35135  -0.34649  -0.28356
 Alpha  occ. eigenvalues --   -0.27437  -0.23637  -0.21754  -0.18727
 Alpha virt. eigenvalues --   -0.01821   0.07992   0.08320   0.09770   0.10992
 Alpha virt. eigenvalues --    0.11973   0.13064   0.15069   0.15659   0.15855
 Alpha virt. eigenvalues --    0.16576   0.17770   0.17964   0.18292   0.18541

 Mulliken charges:
               1
     1  C   -0.287405
     2  N   -0.201513
     3  N   -0.142197
     4  C   -0.013950
     5  C   -0.101694
     6  C   -0.088188
     7  C    0.010015
     8  N   -0.486011
     9  N   -0.281370
    10  C   -0.308661
    11  H    0.123355
    12  H    0.130423
    13  H    0.130317
    14  H    0.232741
    15  H    0.060209
    16  H    0.090884
    17  H    0.077677
    18  H    0.055992
    19  H    0.222354
    20  H    0.222407
    21  H    0.215201
    22  H    0.141941
    23  H    0.088793
    24  H    0.108682
 Sum of Mulliken charges =  -0.00000

 Dipole moment (field-independent basis, Debye):
    X=              2.9779    Y=              0.0062    Z=             -1.3667  Tot=              3.2765
 Quadrupole moment (field-independent basis, Debye-Ang):
   XX=            -55.2947   YY=            -59.7568   ZZ=            -59.8936
   XY=              2.4176   XZ=             -4.3155   YZ=             -1.1901

  Exact polarizability: 201.975  -5.856  73.107   6.693  -3.174  82.389
 Approx polarizability: 268.377 -15.729 106.349  21.868  -5.784 130.536

 ******    1 imaginary frequencies (negative Signs) ******

                      1                      2                      3
                      A                      A                      A
 Frequencies --   -281.7159                42.2434                72.6907
 Red. masses --      1.7754                 3.4813                 3.0858
 Frc consts  --      0.0830                 0.0037                 0.0096
 IR Inten    --     55.1390                 0.2876                 2.5369

                      4                      5                      6
                      A                      A                      A
 Frequencies --     87.2511               116.4287               131.5232
 Red. masses --      1.2494                 2.1436                 2.4049
 Frc consts  --      0.0056                 0.0171                 0.0245
 IR Inten    --     10.0397                 3.4960                 0.2208

                      7                      8                      9
                      A                      A                      A
 Frequencies --    147.4322               197.1959               228.7435
 Red. masses --      2.3450                 1.3417                 2.6825
 Frc consts  --      0.0300                 0.0307                 0.0827
 IR Inten    --      0.4845                 0.5531                 0.7882

                     10                     11                     12
                      A                      A                      A
 Frequencies --    272.5548               285.5780               297.4109
 Red. masses --      1.7189                 1.8245                 2.5447
 Frc consts  --      0.0752                 0.0877                 0.1326
 IR Inten    --     17.7592                26.9507                 3.8962

                     13                     14                     15
                      A                      A                      A
 Frequencies --    324.5999               368.1325               453.9106
 Red. masses --      1.7673                 3.0735                 3.4929
 Frc consts  --      0.1097                 0.2454                 0.4240
 IR Inten    --     10.7511                 1.1227                 9.0702

                     16                     17                     18
                      A                      A                      A
 Frequencies --    464.8009               513.3353               593.5865
 Red. masses --      3.3970                 3.0462                 3.2097
 Frc consts  --      0.4324                 0.4730                 0.6663
 IR Inten    --      6.2972                 2.4226                12.1278

                     19                     20                     21
                      A                      A                      A
 Frequencies --    600.2772               783.1176               853.5599
 Red. masses --      3.1281                 1.4451                 1.6581
 Frc consts  --      0.6641                 0.5221                 0.7118
 IR Inten    --      4.3761               104.9073                34.4932

                     22                     23                     24
                      A                      A                      A
 Frequencies --    896.7523               925.8987               929.4899
 Red. masses --      1.7070                 1.7298                 1.9160
 Frc consts  --      0.8088                 0.8737                 0.9753
 IR Inten    --    216.4057                 1.4792                12.0760

                     25                     26                     27
                      A                      A                      A
 Frequencies --   1002.0577              1019.5421              1056.3820
 Red. masses --      2.3777                 1.1029                 1.7968
 Frc consts  --      1.4067                 0.6754                 1.1814
 IR Inten    --      1.7273                30.9961                10.7544

                     28                     29                     30
                      A                      A                      A
 Frequencies --   1082.7653              1139.2399              1144.9035
 Red. masses --      3.5031                 1.2994                 2.3187
 Frc consts  --      2.4197                 0.9936                 1.7907
 IR Inten    --      7.5668                 8.4291                30.2500

                     31                     32                     33
                      A                      A                      A
 Frequencies --   1160.1374              1169.7747              1206.4166
 Red. masses --      1.2591                 2.6961                 1.6539
 Frc consts  --      0.9984                 2.1736                 1.4183
 IR Inten    --      0.2725               153.7245                 3.2774

                     34                     35                     36
                      A                      A                      A
 Frequencies --   1220.5850              1239.2697              1244.4398
 Red. masses --      1.7790                 1.7313                 2.4395
 Frc consts  --      1.5615                 1.5666                 2.2259
 IR Inten    --     90.9879                 2.4850               239.0442

                     37                     38                     39
                      A                      A                      A
 Frequencies --   1272.5939              1308.7599              1348.3815
 Red. masses --      1.6210                 1.4229                 1.3238
 Frc consts  --      1.5467                 1.4359                 1.4181
 IR Inten    --     57.3725                 1.3597                10.6268

                     40                     41                     42
                      A                      A                      A
 Frequencies --   1386.2522              1404.1936              1450.1901
 Red. masses --      1.4264                 1.2366                 1.1806
 Frc consts  --      1.6150                 1.4365                 1.4629
 IR Inten    --     72.5713                13.0728                 2.3891

                     43                     44                     45
                      A                      A                      A
 Frequencies --   1464.2844              1471.7453              1474.6627
 Red. masses --      1.1812                 1.0414                 1.2164
 Frc consts  --      1.4921                 1.3290                 1.5585
 IR Inten    --     13.7090                 3.7425                50.8742

                     46                     47                     48
                      A                      A                      A
 Frequencies --   1494.6954              1513.0656              1521.5000
 Red. masses --      1.0865                 1.2410                 1.0562
 Frc consts  --      1.4301                 1.6740                 1.4407
 IR Inten    --      1.6826                 0.7247                18.1726

                     49                     50                     51
                      A                      A                      A
 Frequencies --   1536.6312              1635.6173              1649.0797
 Red. masses --      1.2890                 1.1264                 6.9072
 Frc consts  --      1.7932                 1.7754                11.0672
 IR Inten    --    103.0930                31.0974               131.2897

                     52                     53                     54
                      A                      A                      A
 Frequencies --   1702.7024              2912.0074              2945.9131
 Red. masses --      5.7705                 1.0814                 1.0601
 Frc consts  --      9.8570                 5.4029                 5.4203
 IR Inten    --     26.2263                50.9484               101.5178

                     55                     56                     57
                      A                      A                      A
 Frequencies --   3009.2913              3017.9861              3055.9802
 Red. masses --      1.0362                 1.0846                 1.1041
 Frc consts  --      5.5286                 5.8202                 6.0752
 IR Inten    --    138.4043                49.2372                37.7541

                     58                     59                     60
                      A                      A                      A
 Frequencies --   3075.3704              3120.4169              3124.2605
 Red. masses --      1.0744                 1.0977                 1.0880
 Frc consts  --      5.9870                 6.2976                 6.2568
 IR Inten    --     48.5596                16.3362                16.2615

                     61                     62                     63
                      A                      A                      A
 Frequencies --   3130.9848              3148.7755              3473.8589
 Red. masses --      1.0999                 1.0877                 1.0495
 Frc consts  --      6.3527                 6.3540                 7.4618
 IR Inten    --     13.0611                13.3882                 2.9813

                     64                     65                     66
                      A                      A                      A
 Frequencies --   3533.6790              3534.5771              3564.5775
 Red. masses --      1.0740                 1.0755                 1.0915
 Frc consts  --      7.9015                 7.9169                 8.1711
 IR Inten    --      1.7605                10.3373                 0.3526

 - Thermochemistry -
 -------------------
 Temperature   298.150 Kelvin.  Pressure   1.00000 Atm.
 Atom     1 has atomic number  6 and mass  12.00000

 Molecular mass:   142.12185 amu.
 Principal axes and moments of inertia in atomic units:
                           1         2         3
     Eigenvalues --   369.284065063.734975217.43843
           X            0.99999   0.00297  -0.00204
           Y           -0.00306   0.99879  -0.04906
           Z            0.00189   0.04906   0.99879
 This molecule is an asymmetric top.
 Rotational symmetry number  1.
 Rotational temperatures (Kelvin)      0.23455     0.01710     0.01660
 Rotational constants (GHZ):           4.88714     0.35641     0.34591
    1 imaginary frequencies ignored.
 Zero-point vibrational energy     547614.9 (Joules/Mol)
                                  130.88310 (Kcal/Mol)
 Warning -- explicit consideration of  18 degrees of freedom as
           vibrations may cause significant error
 Vibrational temperatures:     60.78   104.59   125.53   167.52   189.23
          (Kelvin)            212.12   283.72   329.11   392.15   410.88
                              427.91   467.03   529.66   653.08   668.74
                              738.58   854.04   863.66  1126.73  1228.08
                             1290.23  1332.16  1337.33  1441.74  1466.89
                             1519.90  1557.86  1639.11  1647.26  1669.18
                             1683.04  1735.76  1756.15  1783.03  1790.47
                             1830.98  1883.01  1940.02  1994.51  2020.32
                             2086.50  2106.78  2117.51  2121.71  2150.53
                             2176.96  2189.10  2210.87  2353.29  2372.66
                             2449.81  4189.73  4238.51  4329.70  4342.21
                             4396.87  4424.77  4489.58  4495.11  4504.79
                             4530.39  4998.11  5084.18  5085.47  5128.63

 Zero-point correction=                           0.208575 (Hartree/Particle)
 Thermal correction to Energy=                    0.220680
 Thermal correction to Enthalpy=                  0.221624
 Thermal correction to Gibbs Free Energy=         0.169906
 Sum of electronic and zero-point Energies=           -455.824302
 Sum of electronic and thermal Energies=              -455.812198
 Sum of electronic and thermal Enthalpies=            -455.811254
 Sum of electronic and thermal Free Energies=         -455.862971

                     E (Thermal)             CV                S
                      KCal/Mol        Cal/Mol-Kelvin    Cal/Mol-Kelvin
 Total                  138.478             42.635            108.849
 Electronic               0.000              0.000              0.000
 Translational            0.889              2.981             40.766
 Rotational               0.889              2.981             30.657
 Vibrational            136.701             36.674             37.426
 Vibration     1          0.595              1.980              5.151
 Vibration     2          0.599              1.967              4.079
 Vibration     3          0.601              1.958              3.721
 Vibration     4          0.608              1.936              3.159
 Vibration     5          0.612              1.922              2.924
 Vibration     6          0.617              1.905              2.705
 Vibration     7          0.637              1.844              2.159
 Vibration     8          0.651              1.797              1.889
 Vibration     9          0.676              1.724              1.580
 Vibration    10          0.683              1.700              1.500
 Vibration    11          0.691              1.679              1.431
 Vibration    12          0.709              1.626              1.287
 Vibration    13          0.741              1.538              1.088
 Vibration    14          0.812              1.352              0.784
 Vibration    15          0.822              1.328              0.752
 Vibration    16          0.868              1.220              0.626
 Vibration    17          0.951              1.045              0.461
 Vibration    18          0.958              1.031              0.449

 Optimization completed.
    -- Stationary point found.
 Normal termination of Gaussian 16 at Mon May 31 21:16:23 2021.
