 Gaussian 16, Revision A.03,
 Gaussian 16:  ES64L-G16RevA.03 25-Dec-2016

 -----------------------------
 # opt freq b3lyp/6-31g(2df,p)
 -----------------------------

 -------------------
 Title Card Required
 -------------------
 Symbolic Z-matrix:
 Charge =  0 Multiplicity = 1

 SCF Done:  E(RB3LYP) =  -432.658351398     A.U. after   13 cycles
 SCF Done:  E(RB3LYP) =  -432.673182600     A.U. after   12 cycles
 SCF Done:  E(RB3LYP) =  -432.676224381     A.U. after   12 cycles
 SCF Done:  E(RB3LYP) =  -432.678037291     A.U. after   12 cycles
 SCF Done:  E(RB3LYP) =  -432.680755503     A.U. after   13 cycles
 SCF Done:  E(RB3LYP) =  -432.643125581     A.U. after   14 cycles
 SCF Done:  E(RB3LYP) =  -432.686720182     A.U. after   13 cycles
 SCF Done:  E(RB3LYP) =  -432.692952274     A.U. after   14 cycles
 SCF Done:  E(RB3LYP) =  -432.695089726     A.U. after   12 cycles
 SCF Done:  E(RB3LYP) =  -432.695194814     A.U. after   13 cycles
 SCF Done:  E(RB3LYP) =  -432.698782219     A.U. after   11 cycles
 SCF Done:  E(RB3LYP) =  -432.698877231     A.U. after   11 cycles
 SCF Done:  E(RB3LYP) =  -432.698896191     A.U. after   10 cycles
 SCF Done:  E(RB3LYP) =  -432.698898750     A.U. after    8 cycles
 SCF Done:  E(RB3LYP) =  -432.698899608     A.U. after    8 cycles
 SCF Done:  E(RB3LYP) =  -432.698899755     A.U. after    7 cycles
 SCF Done:  E(RB3LYP) =  -432.698899825     A.U. after    7 cycles
 SCF Done:  E(RB3LYP) =  -432.698899842     A.U. after    7 cycles
 SCF Done:  E(RB3LYP) =  -432.698899850     A.U. after    6 cycles
 Optimization completed.
    -- Stationary point found.
 Normal termination of Gaussian 16 at Mon May 31 21:44:43 2021.

 ----------------------------------------------------------------------
 #N Geom=AllCheck Guess=TCheck SCRF=Check GenChk RB3LYP/6-31G(2df,p) Fr
 eq
 ----------------------------------------------------------------------

 Structure from the checkpoint file:  "CNNNpCpNCCtN.chk"
 -------------------
 Title Card Required
 -------------------
 Charge =  0 Multiplicity = 1

                         Standard orientation:
 ---------------------------------------------------------------------
 Center     Atomic      Atomic             Coordinates (Angstroms)
 Number     Number       Type             X           Y           Z
 ---------------------------------------------------------------------
      1          6           0       -2.629748   -1.534875   -0.428763
      2          7           0       -2.522513   -0.303959    0.344267
      3          7           0       -1.221345   -0.010728    0.821468
      4          7           0       -0.473376    0.667923   -0.272754
      5          6           0       -0.944234    2.051577   -0.317470
      6          7           0        0.892323    0.671372    0.073483
      7          6           0        1.570083   -0.530788   -0.405133
      8          6           0        2.990281   -0.490147   -0.048120
      9          7           0        4.106289   -0.474646    0.248336
     10          1           0       -3.677195   -1.700362   -0.697335
     11          1           0       -2.265165   -2.428100    0.110096
     12          1           0       -2.051425   -1.425551   -1.350011
     13          1           0       -3.132873   -0.310568    1.152124
     14          1           0       -0.710123   -0.892474    0.931125
     15          1           0       -2.015944    2.037074   -0.518178
     16          1           0       -0.420206    2.561383   -1.126991
     17          1           0       -0.762337    2.578150    0.631598
     18          1           0        1.015338    0.797436    1.081777
     19          1           0        1.472627   -0.558795   -1.494909
     20          1           0        1.159369   -1.482533   -0.025987
 ---------------------------------------------------------------------

 SCF Done:  E(RB3LYP) =  -432.698899850     A.U. after    1 cycles

 The electronic state is 1-A.
 Alpha  occ. eigenvalues --  -14.38161 -14.37704 -14.36537 -14.35389 -14.33404
 Alpha  occ. eigenvalues --  -10.26386 -10.22528 -10.21430 -10.19703  -1.03467
 Alpha  occ. eigenvalues --   -0.95807  -0.90629  -0.84344  -0.77145  -0.72293
 Alpha  occ. eigenvalues --   -0.67679  -0.62089  -0.55715  -0.52995  -0.50689
 Alpha  occ. eigenvalues --   -0.48719  -0.48050  -0.46073  -0.43755  -0.42449
 Alpha  occ. eigenvalues --   -0.40490  -0.39464  -0.38244  -0.36098  -0.33600
 Alpha  occ. eigenvalues --   -0.33166  -0.31831  -0.26960  -0.24420  -0.21932
 Alpha virt. eigenvalues --    0.01876   0.03129   0.06555   0.08835   0.09823
 Alpha virt. eigenvalues --    0.12213   0.12939   0.13634   0.14747   0.15114
 Alpha virt. eigenvalues --    0.15988   0.16986   0.17650   0.18315   0.18794

 Mulliken charges:
               1
     1  C   -0.314726
     2  N   -0.226399
     3  N   -0.280879
     4  N   -0.060994
     5  C   -0.269707
     6  N   -0.262516
     7  C   -0.236991
     8  C    0.250729
     9  N   -0.295501
    10  H    0.128593
    11  H    0.095313
    12  H    0.143192
    13  H    0.237780
    14  H    0.208972
    15  H    0.137253
    16  H    0.126362
    17  H    0.100968
    18  H    0.223078
    19  H    0.168427
    20  H    0.127044
 Sum of Mulliken charges =  -0.00000

 Dipole moment (field-independent basis, Debye):
    X=             -4.2701    Y=             -1.5568    Z=              0.0439  Tot=              4.5453
 Quadrupole moment (field-independent basis, Debye-Ang):
   XX=            -71.3784   YY=            -51.9106   ZZ=            -53.2953
   XY=              3.2085   XZ=             -3.4733   YZ=              0.0617

  Exact polarizability: 105.157   1.509  74.620   3.522   0.359  61.546
 Approx polarizability: 142.137   1.755 101.684   8.126  -0.188  95.242

                      1                      2                      3
                      A                      A                      A
 Frequencies --     38.0730                56.2068               113.7200
 Red. masses --      4.4383                 3.5665                 2.4606
 Frc consts  --      0.0038                 0.0066                 0.0187
 IR Inten    --      5.0899                 3.1680                 0.8412

                      4                      5                      6
                      A                      A                      A
 Frequencies --    142.6300               152.8653               212.9276
 Red. masses --      4.7852                 2.8117                 1.1108
 Frc consts  --      0.0574                 0.0387                 0.0297
 IR Inten    --      5.3194                 4.5685                 0.2585

                      7                      8                      9
                      A                      A                      A
 Frequencies --    247.3849               297.0563               322.4311
 Red. masses --      1.2220                 2.9951                 2.5561
 Frc consts  --      0.0441                 0.1557                 0.1566
 IR Inten    --      0.5806                 7.1039                 5.1539

                     10                     11                     12
                      A                      A                      A
 Frequencies --    367.3254               391.1807               428.1571
 Red. masses --      2.8495                 3.4085                 3.8409
 Frc consts  --      0.2265                 0.3073                 0.4148
 IR Inten    --      5.0460                 1.8238                 2.2059

                     13                     14                     15
                      A                      A                      A
 Frequencies --    494.5329               517.8583               599.5251
 Red. masses --      3.1425                 3.4567                 3.9209
 Frc consts  --      0.4528                 0.5462                 0.8303
 IR Inten    --      6.9489                 9.7079                11.7280

                     16                     17                     18
                      A                      A                      A
 Frequencies --    724.8422               774.5351               855.1270
 Red. masses --      1.7930                 1.8757                 3.4094
 Frc consts  --      0.5550                 0.6630                 1.4689
 IR Inten    --     62.6699                70.7434                15.4241

                     19                     20                     21
                      A                      A                      A
 Frequencies --    935.9250               966.3968               981.1308
 Red. masses --      3.6106                 1.9475                 1.9935
 Frc consts  --      1.8634                 1.0716                 1.1306
 IR Inten    --     16.6240                 5.6429                 9.9111

                     22                     23                     24
                      A                      A                      A
 Frequencies --   1008.0481              1064.4009              1106.1260
 Red. masses --      2.0391                 1.6420                 2.8545
 Frc consts  --      1.2208                 1.0961                 2.0577
 IR Inten    --     22.6668                23.5938                12.5720

                     25                     26                     27
                      A                      A                      A
 Frequencies --   1126.7138              1152.4047              1165.5606
 Red. masses --      3.7237                 1.6700                 1.4803
 Frc consts  --      2.7851                 1.3067                 1.1849
 IR Inten    --     10.1415                 5.6001                10.0732

                     28                     29                     30
                      A                      A                      A
 Frequencies --   1191.1885              1208.9554              1251.7028
 Red. masses --      1.6253                 2.1197                 1.3559
 Frc consts  --      1.3587                 1.8254                 1.2517
 IR Inten    --      6.1549                 4.1900                 6.9442

                     31                     32                     33
                      A                      A                      A
 Frequencies --   1267.9660              1363.8536              1426.7726
 Red. masses --      2.0301                 1.3710                 1.1727
 Frc consts  --      1.9230                 1.5026                 1.4065
 IR Inten    --      6.3007                17.4515                 0.9895

                     34                     35                     36
                      A                      A                      A
 Frequencies --   1440.2582              1473.1384              1477.0103
 Red. masses --      1.1744                 1.0995                 1.0852
 Frc consts  --      1.4354                 1.4058                 1.3949
 IR Inten    --      0.4044                 4.9820                 2.1894

                     37                     38                     39
                      A                      A                      A
 Frequencies --   1482.0210              1491.2139              1492.5010
 Red. masses --      1.1191                 1.0669                 1.0722
 Frc consts  --      1.4482                 1.3979                 1.4073
 IR Inten    --      0.7622                13.9817                 2.5908

                     40                     41                     42
                      A                      A                      A
 Frequencies --   1505.0972              1514.5665              1529.3744
 Red. masses --      1.0640                 1.1285                 1.1234
 Frc consts  --      1.4201                 1.5253                 1.5481
 IR Inten    --      3.3172                11.5379                 5.1713

                     43                     44                     45
                      A                      A                      A
 Frequencies --   2370.1405              2943.8969              2953.4421
 Red. masses --     12.6232                 1.0587                 1.0719
 Frc consts  --     41.7799                 5.4058                 5.5087
 IR Inten    --      3.2802                61.3202                45.7129

                     46                     47                     48
                      A                      A                      A
 Frequencies --   2994.4886              3077.2139              3080.3939
 Red. masses --      1.0518                 1.0729                 1.0855
 Frc consts  --      5.5567                 5.9859                 6.0687
 IR Inten    --     52.9467                25.6984                 4.2083

                     49                     50                     51
                      A                      A                      A
 Frequencies --   3113.8244              3122.7355              3159.4616
 Red. masses --      1.0800                 1.1033                 1.1044
 Frc consts  --      6.1698                 6.3389                 6.4954
 IR Inten    --     18.2259                16.1725                 8.5779

                     52                     53                     54
                      A                      A                      A
 Frequencies --   3354.1062              3393.2830              3550.4129
 Red. masses --      1.0733                 1.0730                 1.0755
 Frc consts  --      7.1144                 7.2793                 7.9876
 IR Inten    --     14.3968                12.0118                 2.8805

 - Thermochemistry -
 -------------------
 Temperature   298.150 Kelvin.  Pressure   1.00000 Atm.
 Atom     1 has atomic number  6 and mass  12.00000

 Molecular mass:   129.10145 amu.
 Principal axes and moments of inertia in atomic units:
                           1         2         3
     Eigenvalues --   581.464092361.816082740.34988
           X            0.99989   0.01487   0.00149
           Y           -0.01488   0.99984   0.01026
           Z           -0.00134  -0.01028   0.99995
 This molecule is an asymmetric top.
 Rotational symmetry number  1.
 Warning -- assumption of classical behavior for rotation
           may cause significant error
 Rotational temperatures (Kelvin)      0.14896     0.03667     0.03161
 Rotational constants (GHZ):           3.10379     0.76413     0.65858
 Zero-point vibrational energy     445442.1 (Joules/Mol)
                                  106.46322 (Kcal/Mol)
 Warning -- explicit consideration of  15 degrees of freedom as
           vibrations may cause significant error
 Vibrational temperatures:     54.78    80.87   163.62   205.21   219.94
          (Kelvin)            306.36   355.93   427.40   463.91   528.50
                              562.82   616.02   711.52   745.08   862.58
                             1042.89  1114.38  1230.34  1346.59  1390.43
                             1411.63  1450.36  1531.44  1591.47  1621.09
                             1658.05  1676.98  1713.85  1739.42  1800.92
                             1824.32  1962.28  2052.81  2072.21  2119.52
                             2125.09  2132.30  2145.52  2147.38  2165.50
                             2179.12  2200.43  3410.10  4235.61  4249.34
                             4308.40  4427.42  4432.00  4480.10  4492.92
                             4545.76  4825.81  4882.18  5108.25

 Zero-point correction=                           0.169660 (Hartree/Particle)
 Thermal correction to Energy=                    0.180223
 Thermal correction to Enthalpy=                  0.181167
 Thermal correction to Gibbs Free Energy=         0.132891
 Sum of electronic and zero-point Energies=           -432.529240
 Sum of electronic and thermal Energies=              -432.518677
 Sum of electronic and thermal Enthalpies=            -432.517733
 Sum of electronic and thermal Free Energies=         -432.566009

                     E (Thermal)             CV                S
                      KCal/Mol        Cal/Mol-Kelvin    Cal/Mol-Kelvin
 Total                  113.091             37.164            101.605
 Electronic               0.000              0.000              0.000
 Translational            0.889              2.981             40.479
 Rotational               0.889              2.981             29.710
 Vibrational            111.314             31.202             31.416
 Vibration     1          0.594              1.982              5.357
 Vibration     2          0.596              1.975              4.586
 Vibration     3          0.607              1.938              3.204
 Vibration     4          0.616              1.911              2.768
 Vibration     5          0.619              1.899              2.636
 Vibration     6          0.644              1.821              2.018
 Vibration     7          0.661              1.767              1.749
 Vibration     8          0.691              1.679              1.433
 Vibration     9          0.707              1.631              1.298
 Vibration    10          0.740              1.539              1.091
 Vibration    11          0.759              1.489              0.996
 Vibration    12          0.790              1.409              0.865
 Vibration    13          0.850              1.262              0.672
 Vibration    14          0.873              1.210              0.615
 Vibration    15          0.958              1.033              0.450

 Optimization completed.
    -- Stationary point found.
 Normal termination of Gaussian 16 at Mon May 31 22:10:56 2021.
