 Gaussian 16, Revision A.03,
 Gaussian 16:  ES64L-G16RevA.03 25-Dec-2016

 -----------------------------
 # opt freq b3lyp/6-31g(2df,p)
 -----------------------------

 -------------------
 Title Card Required
 -------------------
 Symbolic Z-matrix:
 Charge =  0 Multiplicity = 1

 SCF Done:  E(RB3LYP) =  -403.068000515     A.U. after   12 cycles
 SCF Done:  E(RB3LYP) =  -403.077493056     A.U. after   10 cycles
 SCF Done:  E(RB3LYP) =  -403.078838123     A.U. after   10 cycles
 SCF Done:  E(RB3LYP) =  -403.079385581     A.U. after   11 cycles
 SCF Done:  E(RB3LYP) =  -403.079959086     A.U. after   10 cycles
 SCF Done:  E(RB3LYP) =  -403.081895740     A.U. after   12 cycles
 SCF Done:  E(RB3LYP) =  -403.083855215     A.U. after   13 cycles
 SCF Done:  E(RB3LYP) =  -403.084716895     A.U. after   10 cycles
 SCF Done:  E(RB3LYP) =  -403.088612363     A.U. after   11 cycles
 SCF Done:  E(RB3LYP) =  -403.093295925     A.U. after   13 cycles
 SCF Done:  E(RB3LYP) =  -403.094403939     A.U. after   11 cycles
 SCF Done:  E(RB3LYP) =  -403.094935868     A.U. after   10 cycles
 SCF Done:  E(RB3LYP) =  -403.095186868     A.U. after   10 cycles
 SCF Done:  E(RB3LYP) =  -403.095214089     A.U. after    9 cycles
 SCF Done:  E(RB3LYP) =  -403.095221304     A.U. after    9 cycles
 SCF Done:  E(RB3LYP) =  -403.095222978     A.U. after    8 cycles
 SCF Done:  E(RB3LYP) =  -403.095223283     A.U. after    7 cycles
 SCF Done:  E(RB3LYP) =  -403.095223363     A.U. after    6 cycles
 Optimization completed.
    -- Stationary point found.
 Normal termination of Gaussian 16 at Mon May 31 19:20:43 2021.

 ----------------------------------------------------------------------
 #N Geom=AllCheck Guess=TCheck SCRF=Check GenChk RB3LYP/6-31G(2df,p) Fr
 eq
 ----------------------------------------------------------------------

 Structure from the checkpoint file:  "CNNNCpCpCpCpC.chk"
 -------------------
 Title Card Required
 -------------------
 Charge =  0 Multiplicity = 1

                         Standard orientation:
 ---------------------------------------------------------------------
 Center     Atomic      Atomic             Coordinates (Angstroms)
 Number     Number       Type             X           Y           Z
 ---------------------------------------------------------------------
      1          6           0        3.332159   -0.874487    0.156943
      2          7           0        2.326448    0.039057    0.687903
      3          7           0        1.686802    0.843389   -0.306620
      4          7           0        0.495781    0.255702   -0.811770
      5          6           0       -0.643839    0.493612    0.093410
      6          6           0       -1.006774    1.979434    0.023587
      7          6           0       -1.810776   -0.439108   -0.304432
      8          6           0       -1.458098   -1.927957   -0.135430
      9          6           0       -3.084277   -0.128238    0.496772
     10          1           0        3.838777   -1.374948    0.988020
     11          1           0        4.098271   -0.379649   -0.466833
     12          1           0        2.851396   -1.648935   -0.450945
     13          1           0        2.749506    0.676879    1.353114
     14          1           0        2.305271    0.960823   -1.108904
     15          1           0        0.636105   -0.747920   -0.909349
     16          1           0       -0.356551    0.247977    1.130375
     17          1           0       -1.450312    2.225625   -0.947587
     18          1           0       -0.100227    2.575947    0.145109
     19          1           0       -1.709241    2.261294    0.811989
     20          1           0       -2.021200   -0.254554   -1.367525
     21          1           0       -1.153994   -2.143294    0.895687
     22          1           0       -0.651799   -2.259169   -0.797329
     23          1           0       -2.326866   -2.554472   -0.362648
     24          1           0       -2.905345   -0.227584    1.574394
     25          1           0       -3.883669   -0.827335    0.230347
     26          1           0       -3.453707    0.882738    0.310401
 ---------------------------------------------------------------------

 SCF Done:  E(RB3LYP) =  -403.095223363     A.U. after    1 cycles

 The electronic state is 1-A.
 Alpha  occ. eigenvalues --  -14.35652 -14.33789 -14.32431 -10.20797 -10.19269
 Alpha  occ. eigenvalues --  -10.17942 -10.16929 -10.16547 -10.15234  -0.99262
 Alpha  occ. eigenvalues --   -0.87776  -0.79772  -0.73844  -0.70353  -0.67303
 Alpha  occ. eigenvalues --   -0.65263  -0.59916  -0.54435  -0.50980  -0.49577
 Alpha  occ. eigenvalues --   -0.47018  -0.45889  -0.43500  -0.41762  -0.41375
 Alpha  occ. eigenvalues --   -0.39989  -0.38782  -0.37786  -0.36551  -0.36096
 Alpha  occ. eigenvalues --   -0.34728  -0.32495  -0.31595  -0.30411  -0.24487
 Alpha  occ. eigenvalues --   -0.23318  -0.22705
 Alpha virt. eigenvalues --    0.07185   0.09505   0.10952   0.11817   0.13067
 Alpha virt. eigenvalues --    0.14112   0.14405   0.15452   0.16279   0.16818
 Alpha virt. eigenvalues --    0.17377   0.18057   0.18825   0.19354   0.19447

 Mulliken charges:
               1
     1  C   -0.314941
     2  N   -0.239135
     3  N   -0.270632
     4  N   -0.287522
     5  C    0.122653
     6  C   -0.385966
     7  C    0.027479
     8  C   -0.403076
     9  C   -0.395981
    10  H    0.125434
    11  H    0.098419
    12  H    0.123487
    13  H    0.231591
    14  H    0.217582
    15  H    0.206474
    16  H    0.062510
    17  H    0.106766
    18  H    0.124478
    19  H    0.104021
    20  H    0.076654
    21  H    0.118074
    22  H    0.106474
    23  H    0.110184
    24  H    0.110973
    25  H    0.106438
    26  H    0.117561
 Sum of Mulliken charges =  -0.00000

 Dipole moment (field-independent basis, Debye):
    X=              1.5104    Y=             -0.9764    Z=              0.1817  Tot=              1.8076
 Quadrupole moment (field-independent basis, Debye-Ang):
   XX=            -51.0320   YY=            -59.6874   ZZ=            -58.9369
   XY=              0.0033   XZ=              0.3080   YZ=              1.4905

  Exact polarizability: 108.741  -2.048  88.633   0.490   0.188  77.013
 Approx polarizability: 131.007  -0.896 121.095   2.372   0.154 121.706

                      1                      2                      3
                      A                      A                      A
 Frequencies --     36.7365                54.8363                77.7330
 Red. masses --      2.4696                 3.2073                 2.6579
 Frc consts  --      0.0020                 0.0057                 0.0095
 IR Inten    --      0.1651                 0.9124                 0.3848

                      4                      5                      6
                      A                      A                      A
 Frequencies --    125.8001               185.7032               218.0929
 Red. masses --      2.3875                 1.4031                 1.1437
 Frc consts  --      0.0223                 0.0285                 0.0321
 IR Inten    --      1.5449                 0.0515                 0.1570

                      7                      8                      9
                      A                      A                      A
 Frequencies --    222.9785               230.9804               254.5283
 Red. masses --      1.3878                 1.2158                 1.6509
 Frc consts  --      0.0407                 0.0382                 0.0630
 IR Inten    --      1.2730                 0.2578                 1.8417

                     10                     11                     12
                      A                      A                      A
 Frequencies --    295.4655               350.8416               377.7575
 Red. masses --      1.8847                 2.3303                 2.1720
 Frc consts  --      0.0969                 0.1690                 0.1826
 IR Inten    --      0.6937                 0.2826                 1.1800

                     13                     14                     15
                      A                      A                      A
 Frequencies --    414.7452               426.4347               474.8391
 Red. masses --      2.3315                 2.6968                 2.3355
 Frc consts  --      0.2363                 0.2889                 0.3103
 IR Inten    --      0.1991                 0.9964                 9.6757

                     16                     17                     18
                      A                      A                      A
 Frequencies --    519.8574               559.3886               736.2599
 Red. masses --      2.0630                 2.7721                 2.4266
 Frc consts  --      0.3285                 0.5111                 0.7750
 IR Inten    --     18.1856                10.1747                19.3714

                     19                     20                     21
                      A                      A                      A
 Frequencies --    803.1804               807.3530               882.6675
 Red. masses --      2.0184                 2.0049                 2.1810
 Frc consts  --      0.7672                 0.7700                 1.0011
 IR Inten    --     34.3616                49.1314                14.5253

                     22                     23                     24
                      A                      A                      A
 Frequencies --    916.4450               927.0671               953.8503
 Red. masses --      1.6587                 1.1759                 1.8734
 Frc consts  --      0.8208                 0.5955                 1.0042
 IR Inten    --     16.0065                 1.0541                 2.1210

                     25                     26                     27
                      A                      A                      A
 Frequencies --    967.7289               987.0814              1003.3456
 Red. masses --      1.4653                 1.3758                 1.4824
 Frc consts  --      0.8085                 0.7898                 0.8792
 IR Inten    --      0.7951                 9.6585                10.1909

                     28                     29                     30
                      A                      A                      A
 Frequencies --   1076.0787              1088.8408              1114.9227
 Red. masses --      1.9701                 3.7350                 2.3048
 Frc consts  --      1.3441                 2.6090                 1.6880
 IR Inten    --      4.5961                25.7761                 6.3175

                     31                     32                     33
                      A                      A                      A
 Frequencies --   1140.4676              1177.2656              1185.8499
 Red. masses --      1.5804                 2.0213                 1.8973
 Frc consts  --      1.2111                 1.6505                 1.5719
 IR Inten    --      4.9114                 0.7621                 6.3517

                     34                     35                     36
                      A                      A                      A
 Frequencies --   1192.9854              1204.6364              1223.0374
 Red. masses --      2.0451                 2.0768                 1.8504
 Frc consts  --      1.7149                 1.7756                 1.6308
 IR Inten    --     23.5525                14.2180                 5.5499

                     37                     38                     39
                      A                      A                      A
 Frequencies --   1306.0501              1347.4003              1363.7591
 Red. masses --      1.3670                 1.2909                 1.3687
 Frc consts  --      1.3738                 1.3809                 1.4998
 IR Inten    --      5.5756                 4.0367                 3.3184

                     40                     41                     42
                      A                      A                      A
 Frequencies --   1383.8777              1396.6476              1401.5016
 Red. masses --      1.3987                 1.2783                 1.2390
 Frc consts  --      1.5783                 1.4691                 1.4339
 IR Inten    --      2.5059                 3.3252                10.8616

                     43                     44                     45
                      A                      A                      A
 Frequencies --   1422.9574              1447.3310              1474.0303
 Red. masses --      1.2210                 1.1736                 1.0860
 Frc consts  --      1.4566                 1.4485                 1.3902
 IR Inten    --      4.6663                 1.1561                 2.0261

                     46                     47                     48
                      A                      A                      A
 Frequencies --   1475.8404              1484.4713              1485.9630
 Red. masses --      1.1458                 1.0501                 1.0515
 Frc consts  --      1.4704                 1.3634                 1.3680
 IR Inten    --      9.8705                 1.1127                 3.2938

                     49                     50                     51
                      A                      A                      A
 Frequencies --   1491.4638              1498.8074              1503.1612
 Red. masses --      1.0588                 1.0553                 1.0579
 Frc consts  --      1.3877                 1.3967                 1.4084
 IR Inten    --      7.8781                 3.1237                 0.7462

                     52                     53                     54
                      A                      A                      A
 Frequencies --   1507.4249              1516.4643              1518.9510
 Red. masses --      1.0533                 1.0728                 1.0559
 Frc consts  --      1.4101                 1.4535                 1.4353
 IR Inten    --      8.3578                 8.8540                 8.5972

                     55                     56                     57
                      A                      A                      A
 Frequencies --   1539.6460              2944.7539              2951.5079
 Red. masses --      1.1448                 1.0573                 1.0804
 Frc consts  --      1.5989                 5.4020                 5.5450
 IR Inten    --      4.1058                82.0453                29.1554

                     58                     59                     60
                      A                      A                      A
 Frequencies --   3007.3338              3025.5628              3030.7351
 Red. masses --      1.0825                 1.0366                 1.0382
 Frc consts  --      5.7682                 5.5907                 5.6187
 IR Inten    --     18.4055                24.6024                26.0083

                     61                     62                     63
                      A                      A                      A
 Frequencies --   3039.1255              3057.4938              3088.4678
 Red. masses --      1.0384                 1.0759                 1.1004
 Frc consts  --      5.6508                 5.9259                 6.1842
 IR Inten    --     23.5344                30.2294                 3.6818

                     64                     65                     66
                      A                      A                      A
 Frequencies --   3093.1009              3096.3439              3102.0590
 Red. masses --      1.1001                 1.1001                 1.1011
 Frc consts  --      6.2012                 6.2143                 6.2430
 IR Inten    --     45.1158                59.1920                24.1454

                     67                     68                     69
                      A                      A                      A
 Frequencies --   3110.0454              3119.0045              3131.1886
 Red. masses --      1.0994                 1.0981                 1.1000
 Frc consts  --      6.2654                 6.2939                 6.3542
 IR Inten    --     35.6222                28.2755                15.8362

                     70                     71                     72
                      A                      A                      A
 Frequencies --   3427.1517              3457.9135              3520.1276
 Red. masses --      1.0741                 1.0724                 1.0753
 Frc consts  --      7.4331                 7.5550                 7.8508
 IR Inten    --      6.1490                 5.1711                 1.3213

 - Thermochemistry -
 -------------------
 Temperature   298.150 Kelvin.  Pressure   1.00000 Atm.
 Atom     1 has atomic number  6 and mass  12.00000

 Molecular mass:   131.14225 amu.
 Principal axes and moments of inertia in atomic units:
                           1         2         3
     Eigenvalues --   695.617382107.681232545.08099
           X            0.99993  -0.01016  -0.00531
           Y            0.01022   0.99989   0.01100
           Z            0.00520  -0.01105   0.99993
 This molecule is an asymmetric top.
 Rotational symmetry number  1.
 Warning -- assumption of classical behavior for rotation
           may cause significant error
 Rotational temperatures (Kelvin)      0.12451     0.04109     0.03403
 Rotational constants (GHZ):           2.59445     0.85627     0.70911
 Zero-point vibrational energy     627940.5 (Joules/Mol)
                                  150.08137 (Kcal/Mol)
 Warning -- explicit consideration of  17 degrees of freedom as
           vibrations may cause significant error
 Vibrational temperatures:     52.86    78.90   111.84   181.00   267.19
          (Kelvin)            313.79   320.82   332.33   366.21   425.11
                              504.78   543.51   596.73   613.54   683.19
                              747.96   804.84  1059.31  1155.60  1161.60
                             1269.96  1318.56  1333.84  1372.38  1392.35
                             1420.19  1443.59  1548.24  1566.60  1604.13
                             1640.88  1693.82  1706.17  1716.44  1733.20
                             1759.68  1879.11  1938.61  1962.15  1991.09
                             2009.46  2016.45  2047.32  2082.39  2120.80
                             2123.41  2135.82  2137.97  2145.88  2156.45
                             2162.71  2168.85  2181.85  2185.43  2215.21
                             4236.84  4246.56  4326.88  4353.11  4360.55
                             4372.62  4399.05  4443.62  4450.28  4454.95
                             4463.17  4474.66  4487.55  4505.08  4930.91
                             4975.17  5064.68

 Zero-point correction=                           0.239170 (Hartree/Particle)
 Thermal correction to Energy=                    0.250998
 Thermal correction to Enthalpy=                  0.251942
 Thermal correction to Gibbs Free Energy=         0.201331
 Sum of electronic and zero-point Energies=           -402.856053
 Sum of electronic and thermal Energies=              -402.844225
 Sum of electronic and thermal Enthalpies=            -402.843281
 Sum of electronic and thermal Free Energies=         -402.893892

                     E (Thermal)             CV                S
                      KCal/Mol        Cal/Mol-Kelvin    Cal/Mol-Kelvin
 Total                  157.504             43.089            106.520
 Electronic               0.000              0.000              0.000
 Translational            0.889              2.981             40.526
 Rotational               0.889              2.981             29.702
 Vibrational            155.726             37.127             36.292
 Vibration     1          0.594              1.982              5.428
 Vibration     2          0.596              1.976              4.635
 Vibration     3          0.599              1.964              3.947
 Vibration     4          0.611              1.927              3.009
 Vibration     5          0.632              1.859              2.270
 Vibration     6          0.646              1.814              1.975
 Vibration     7          0.649              1.806              1.935
 Vibration     8          0.653              1.794              1.871
 Vibration     9          0.665              1.755              1.699
 Vibration    10          0.690              1.682              1.442
 Vibration    11          0.728              1.574              1.162
 Vibration    12          0.748              1.518              1.048
 Vibration    13          0.778              1.438              0.910
 Vibration    14          0.788              1.413              0.870
 Vibration    15          0.832              1.306              0.724
 Vibration    16          0.875              1.206              0.610
 Vibration    17          0.915              1.119              0.525

                           ! Non-Optimized Parameters !
 Normal termination of Gaussian 16 at Mon May 31 20:18:27 2021.
