 Gaussian 16, Revision A.03,
 Gaussian 16:  ES64L-G16RevA.03 25-Dec-2016

 -----------------------------
 # opt freq b3lyp/6-31g(2df,p)
 -----------------------------

 -------------------
 Title Card Required
 -------------------
 Symbolic Z-matrix:
 Charge =  0 Multiplicity = 1

 SCF Done:  E(RB3LYP) =  -465.874009194     A.U. after   14 cycles
 SCF Done:  E(RB3LYP) =  -465.895257092     A.U. after   13 cycles
 SCF Done:  E(RB3LYP) =  -465.904868532     A.U. after   14 cycles
 SCF Done:  E(RB3LYP) =  -465.908339739     A.U. after   14 cycles
 SCF Done:  E(RB3LYP) =  -465.909700665     A.U. after   13 cycles
 SCF Done:  E(RB3LYP) =  -465.910220025     A.U. after   13 cycles
 SCF Done:  E(RB3LYP) =  -465.911009047     A.U. after   13 cycles
 SCF Done:  E(RB3LYP) =  -465.911328888     A.U. after   13 cycles
 SCF Done:  E(RB3LYP) =  -465.911935271     A.U. after   13 cycles
 SCF Done:  E(RB3LYP) =  -465.913077416     A.U. after   13 cycles
 SCF Done:  E(RB3LYP) =  -465.929114812     A.U. after   11 cycles
 SCF Done:  E(RB3LYP) =  -465.929163137     A.U. after   10 cycles
 SCF Done:  E(RB3LYP) =  -465.929172858     A.U. after    9 cycles
 SCF Done:  E(RB3LYP) =  -465.929174121     A.U. after    8 cycles
 SCF Done:  E(RB3LYP) =  -465.929174361     A.U. after    8 cycles
 SCF Done:  E(RB3LYP) =  -465.929174418     A.U. after    7 cycles
 SCF Done:  E(RB3LYP) =  -465.929174445     A.U. after    7 cycles
 SCF Done:  E(RB3LYP) =  -465.929174468     A.U. after    7 cycles
 SCF Done:  E(RB3LYP) =  -465.929174482     A.U. after    7 cycles
 Optimization completed.
    -- Stationary point found.
 Normal termination of Gaussian 16 at Tue Jun  1 02:52:16 2021.

 ----------------------------------------------------------------------
 #N Geom=AllCheck Guess=TCheck SCRF=Check GenChk RB3LYP/6-31G(2df,p) Fr
 eq
 ----------------------------------------------------------------------

 Structure from the checkpoint file:  "CNNpCpNpNpNNdN.chk"
 -------------------
 Title Card Required
 -------------------
 Charge =  0 Multiplicity = 1

                         Standard orientation:
 ---------------------------------------------------------------------
 Center     Atomic      Atomic             Coordinates (Angstroms)
 Number     Number       Type             X           Y           Z
 ---------------------------------------------------------------------
      1          6           0       -1.658030    1.869193    0.296476
      2          7           0       -1.957349    0.445853    0.252892
      3          7           0       -0.852063   -0.372847    0.571327
      4          6           0       -1.344623   -1.699561    0.940082
      5          7           0        0.126156   -0.544925   -0.489050
      6          7           0       -0.454970   -0.458767   -1.781512
      7          7           0        1.197213    0.341214   -0.313755
      8          7           0        2.352431   -0.269610    0.067847
      9          7           0        3.131340    0.521316    0.641525
     10          1           0       -2.587819    2.421884    0.129975
     11          1           0       -0.928163    2.219479   -0.454315
     12          1           0       -1.277327    2.123366    1.289671
     13          1           0       -2.310371    0.179208   -0.668251
     14          1           0       -2.008318   -1.588017    1.798899
     15          1           0       -0.491679   -2.326069    1.205302
     16          1           0       -1.900512   -2.181272    0.120671
     17          1           0        0.034813   -1.127737   -2.366433
     18          1           0       -0.288169    0.465578   -2.177970
     19          1           0        0.991010    1.179920    0.231430
     20          1           0        3.983142   -0.019789    0.826756
 ---------------------------------------------------------------------

 SCF Done:  E(RB3LYP) =  -465.929174482     A.U. after    1 cycles

 The electronic state is 1-A.
 Alpha  occ. eigenvalues --  -14.40737 -14.40416 -14.38984 -14.37433 -14.35462
 Alpha  occ. eigenvalues --  -14.34749 -14.34016 -10.20817 -10.19508  -1.08358
 Alpha  occ. eigenvalues --   -1.02984  -0.94926  -0.88024  -0.82463  -0.73582
 Alpha  occ. eigenvalues --   -0.67565  -0.63999  -0.61709  -0.56139  -0.52444
 Alpha  occ. eigenvalues --   -0.51558  -0.49607  -0.47015  -0.45262  -0.42435
 Alpha  occ. eigenvalues --   -0.41564  -0.40969  -0.39737  -0.38753  -0.37602
 Alpha  occ. eigenvalues --   -0.29169  -0.28931  -0.26041  -0.24276  -0.23932
 Alpha  occ. eigenvalues --   -0.22567
 Alpha virt. eigenvalues --   -0.02097   0.06288   0.09722   0.10839   0.12528
 Alpha virt. eigenvalues --    0.13507   0.14147   0.14286   0.15326   0.16271
 Alpha virt. eigenvalues --    0.17103   0.17670   0.18828   0.19563   0.21403

 Mulliken charges:
               1
     1  C   -0.309998
     2  N   -0.241122
     3  N   -0.058151
     4  C   -0.276004
     5  N   -0.064397
     6  N   -0.441601
     7  N   -0.157012
     8  N   -0.018197
     9  N   -0.341526
    10  H    0.125750
    11  H    0.091125
    12  H    0.136106
    13  H    0.221532
    14  H    0.127855
    15  H    0.128605
    16  H    0.104851
    17  H    0.258197
    18  H    0.232315
    19  H    0.233824
    20  H    0.247849
 Sum of Mulliken charges =  -0.00000

 Dipole moment (field-independent basis, Debye):
    X=             -0.6065    Y=              0.3454    Z=             -1.5337  Tot=              1.6850
 Quadrupole moment (field-independent basis, Debye-Ang):
   XX=            -55.2063   YY=            -52.8172   ZZ=            -51.1929
   XY=             -3.0724   XZ=              1.1976   YZ=             -1.2112

  Exact polarizability:  97.901  -0.430  72.730   7.867   1.019  67.313
 Approx polarizability: 132.371   1.246 102.481  16.192   4.317 101.731

                      1                      2                      3
                      A                      A                      A
 Frequencies --     46.1744                69.2455               126.2339
 Red. masses --      3.4522                 3.6420                 2.7306
 Frc consts  --      0.0043                 0.0103                 0.0256
 IR Inten    --      1.0483                 0.0167                 0.5204

                      4                      5                      6
                      A                      A                      A
 Frequencies --    145.7262               207.8522               242.6189
 Red. masses --      4.9437                 3.3202                 1.0984
 Frc consts  --      0.0619                 0.0845                 0.0381
 IR Inten    --      4.3910                 1.0285                 1.1784

                      7                      8                      9
                      A                      A                      A
 Frequencies --    246.2935               265.9268               304.7463
 Red. masses --      1.2408                 2.4248                 1.0911
 Frc consts  --      0.0443                 0.1010                 0.0597
 IR Inten    --      0.2960                 1.8009                42.8629

                     10                     11                     12
                      A                      A                      A
 Frequencies --    363.6520               387.7429               405.2454
 Red. masses --      3.0922                 2.7868                 3.9362
 Frc consts  --      0.2409                 0.2469                 0.3809
 IR Inten    --      7.7495                 1.0897                10.4388

                     13                     14                     15
                      A                      A                      A
 Frequencies --    465.9057               531.5971               564.3606
 Red. masses --      3.6729                 3.4289                 3.1291
 Frc consts  --      0.4697                 0.5709                 0.5872
 IR Inten    --      9.8020                 3.0502                10.5925

                     16                     17                     18
                      A                      A                      A
 Frequencies --    634.4273               672.2742               787.0355
 Red. masses --      2.1256                 3.6575                 2.9211
 Frc consts  --      0.5041                 0.9739                 1.0661
 IR Inten    --    143.6098                 6.4650                68.0524

                     19                     20                     21
                      A                      A                      A
 Frequencies --    804.4242               883.2421               945.0736
 Red. masses --      2.3335                 3.6632                 1.1972
 Frc consts  --      0.8897                 1.6837                 0.6300
 IR Inten    --    118.8985                56.7828                34.6694

                     22                     23                     24
                      A                      A                      A
 Frequencies --    956.4142              1076.1069              1094.5579
 Red. masses --      1.4733                 3.7778                 3.2054
 Frc consts  --      0.7940                 2.5775                 2.2626
 IR Inten    --     65.6909                93.1264                36.5415

                     25                     26                     27
                      A                      A                      A
 Frequencies --   1131.6768              1137.0809              1156.6699
 Red. masses --      2.0423                 2.0030                 1.4653
 Frc consts  --      1.5410                 1.5258                 1.1550
 IR Inten    --     23.6440                 7.9953                 0.5150

                     28                     29                     30
                      A                      A                      A
 Frequencies --   1172.5202              1194.9133              1224.6592
 Red. masses --      1.5217                 2.6631                 4.1071
 Frc consts  --      1.2326                 2.2403                 3.6293
 IR Inten    --     29.9327                11.9386                 1.0950

                     31                     32                     33
                      A                      A                      A
 Frequencies --   1251.6853              1310.5377              1434.5021
 Red. masses --      1.8731                 1.1992                 1.1824
 Frc consts  --      1.7290                 1.2135                 1.4336
 IR Inten    --     17.0709                 5.5597                 0.5500

                     34                     35                     36
                      A                      A                      A
 Frequencies --   1438.2603              1448.9872              1476.1485
 Red. masses --      1.2012                 1.2578                 1.0665
 Frc consts  --      1.4640                 1.5560                 1.3692
 IR Inten    --      3.1892                 1.8077                 5.9593

                     37                     38                     39
                      A                      A                      A
 Frequencies --   1484.8251              1494.4984              1500.5249
 Red. masses --      1.3003                 1.1080                 1.0447
 Frc consts  --      1.6890                 1.4580                 1.3859
 IR Inten    --     13.8907                 8.7226                 4.4430

                     40                     41                     42
                      A                      A                      A
 Frequencies --   1511.2398              1535.9490              1591.5154
 Red. masses --      1.1176                 1.1119                 7.4284
 Frc consts  --      1.5038                 1.5455                11.0858
 IR Inten    --      0.7723                12.5277               111.1857

                     43                     44                     45
                      A                      A                      A
 Frequencies --   1677.0905              2947.1137              2989.4984
 Red. masses --      1.0739                 1.0593                 1.0528
 Frc consts  --      1.7796                 5.4209                 5.5434
 IR Inten    --     15.0010                68.9694                54.3846

                     46                     47                     48
                      A                      A                      A
 Frequencies --   3068.6586              3103.2223              3117.0554
 Red. masses --      1.0721                 1.0786                 1.1029
 Frc consts  --      5.9482                 6.1197                 6.3137
 IR Inten    --     34.7881                22.0991                16.8546

                     49                     50                     51
                      A                      A                      A
 Frequencies --   3151.2786              3382.7049              3419.6089
 Red. masses --      1.1052                 1.0747                 1.0719
 Frc consts  --      6.4664                 7.2453                 7.3853
 IR Inten    --     16.1425                 0.3577                 9.6160

                     52                     53                     54
                      A                      A                      A
 Frequencies --   3436.2948              3449.1746              3555.4347
 Red. masses --      1.0724                 1.0524                 1.0902
 Frc consts  --      7.4609                 7.3768                 8.1197
 IR Inten    --      6.1829                 2.9182                 5.4640

 - Thermochemistry -
 -------------------
 Temperature   298.150 Kelvin.  Pressure   1.00000 Atm.
 Atom     1 has atomic number  6 and mass  12.00000

 Molecular mass:   133.10759 amu.
 Principal axes and moments of inertia in atomic units:
                           1         2         3
     Eigenvalues --   772.693241735.826371863.85522
           X            0.99997  -0.00790  -0.00085
           Y            0.00784   0.99829  -0.05789
           Z            0.00131   0.05789   0.99832
 This molecule is an asymmetric top.
 Rotational symmetry number  1.
 Warning -- assumption of classical behavior for rotation
           may cause significant error
 Rotational temperatures (Kelvin)      0.11209     0.04990     0.04647
 Rotational constants (GHZ):           2.33565     1.03970     0.96828
 Zero-point vibrational energy     442739.2 (Joules/Mol)
                                  105.81720 (Kcal/Mol)
 Warning -- explicit consideration of  15 degrees of freedom as
           vibrations may cause significant error
 Vibrational temperatures:     66.43    99.63   181.62   209.67   299.05
          (Kelvin)            349.07   354.36   382.61   438.46   523.21
                              557.88   583.06   670.33   764.85   811.99
                              912.80   967.25  1132.37  1157.39  1270.79
                             1359.75  1376.07  1548.28  1574.82  1628.23
                             1636.01  1664.19  1687.00  1719.21  1762.01
                             1800.90  1885.57  2063.93  2069.34  2084.77
                             2123.85  2136.33  2150.25  2158.92  2174.34
                             2209.89  2289.84  2412.96  4240.24  4301.22
                             4415.12  4464.84  4484.75  4533.99  4866.96
                             4920.05  4944.06  4962.59  5115.48

 Zero-point correction=                           0.168630 (Hartree/Particle)
 Thermal correction to Energy=                    0.179277
 Thermal correction to Enthalpy=                  0.180221
 Thermal correction to Gibbs Free Energy=         0.132510
 Sum of electronic and zero-point Energies=           -465.760544
 Sum of electronic and thermal Energies=              -465.749898
 Sum of electronic and thermal Enthalpies=            -465.748954
 Sum of electronic and thermal Free Energies=         -465.796665

                     E (Thermal)             CV                S
                      KCal/Mol        Cal/Mol-Kelvin    Cal/Mol-Kelvin
 Total                  112.498             38.267            100.416
 Electronic               0.000              0.000              0.000
 Translational            0.889              2.981             40.570
 Rotational               0.889              2.981             29.304
 Vibrational            110.720             32.305             30.542
 Vibration     1          0.595              1.979              4.975
 Vibration     2          0.598              1.969              4.175
 Vibration     3          0.611              1.927              3.003
 Vibration     4          0.617              1.907              2.727
 Vibration     5          0.641              1.829              2.062
 Vibration     6          0.659              1.775              1.784
 Vibration     7          0.661              1.769              1.757
 Vibration     8          0.672              1.736              1.623
 Vibration     9          0.696              1.665              1.391
 Vibration    10          0.737              1.547              1.106
 Vibration    11          0.756              1.496              1.009
 Vibration    12          0.770              1.459              0.944
 Vibration    13          0.823              1.326              0.749
 Vibration    14          0.887              1.180              0.584
 Vibration    15          0.920              1.108              0.515

                           ! Non-Optimized Parameters !
 Normal termination of Gaussian 16 at Tue Jun  1 03:18:54 2021.
