 Gaussian 16, Revision A.03,
 Gaussian 16:  ES64L-G16RevA.03 25-Dec-2016

 -----------------------------
 # opt freq b3lyp/6-31g(2df,p)
 -----------------------------

 -------------------
 Title Card Required
 -------------------
 Symbolic Z-matrix:
 Charge =  0 Multiplicity = 1

 SCF Done:  E(RB3LYP) =  -474.403660826     A.U. after   12 cycles
 SCF Done:  E(RB3LYP) =  -474.415160846     A.U. after   11 cycles
 SCF Done:  E(RB3LYP) =  -474.420547800     A.U. after   11 cycles
 SCF Done:  E(RB3LYP) =  -474.422315583     A.U. after   11 cycles
 SCF Done:  E(RB3LYP) =  -474.423861740     A.U. after   11 cycles
 SCF Done:  E(RB3LYP) =  -474.422087710     A.U. after   11 cycles
 SCF Done:  E(RB3LYP) =  -474.426223129     A.U. after   11 cycles
 SCF Done:  E(RB3LYP) =  -474.427698485     A.U. after   11 cycles
 SCF Done:  E(RB3LYP) =  -474.429826118     A.U. after   12 cycles
 SCF Done:  E(RB3LYP) =  -474.431232997     A.U. after   10 cycles
 SCF Done:  E(RB3LYP) =  -474.447983412     A.U. after   10 cycles
 SCF Done:  E(RB3LYP) =  -474.448282146     A.U. after   10 cycles
 SCF Done:  E(RB3LYP) =  -474.448341995     A.U. after   10 cycles
 SCF Done:  E(RB3LYP) =  -474.448357245     A.U. after    8 cycles
 SCF Done:  E(RB3LYP) =  -474.448362931     A.U. after    8 cycles
 SCF Done:  E(RB3LYP) =  -474.448364583     A.U. after    7 cycles
 SCF Done:  E(RB3LYP) =  -474.448364739     A.U. after    7 cycles
 SCF Done:  E(RB3LYP) =  -474.448364771     A.U. after    6 cycles
 SCF Done:  E(RB3LYP) =  -474.448364790     A.U. after    6 cycles
 Optimization completed.
    -- Stationary point found.
 Normal termination of Gaussian 16 at Tue Jun  1 12:26:42 2021.

 ----------------------------------------------------------------------
 #N Geom=AllCheck Guess=TCheck SCRF=Check GenChk RB3LYP/6-31G(2df,p) Fr
 eq
 ----------------------------------------------------------------------

 Structure from the checkpoint file:  "CNNpCpNpNpCCCN.chk"
 -------------------
 Title Card Required
 -------------------
 Charge =  0 Multiplicity = 1

                         Standard orientation:
 ---------------------------------------------------------------------
 Center     Atomic      Atomic             Coordinates (Angstroms)
 Number     Number       Type             X           Y           Z
 ---------------------------------------------------------------------
      1          6           0       -2.312366    1.994956    0.011904
      2          7           0       -2.622382    0.579428   -0.117276
      3          7           0       -1.725214   -0.276280    0.570868
      4          6           0       -2.431281   -1.521256    0.868575
      5          7           0       -0.507798   -0.613435   -0.124414
      6          7           0       -0.728921   -0.829403   -1.512274
      7          6           0        0.583916    0.311443    0.168080
      8          6           0        1.950596   -0.344719   -0.041961
      9          6           0        3.111846    0.586858    0.305446
     10          7           0        4.394256   -0.067113    0.024143
     11          1           0       -3.138749    2.567926   -0.422611
     12          1           0       -1.382069    2.325327   -0.476391
     13          1           0       -2.241436    2.243864    1.074088
     14          1           0       -2.670776    0.289910   -1.095167
     15          1           0       -3.313876   -1.281570    1.463897
     16          1           0       -1.765444   -2.174093    1.436673
     17          1           0       -2.752675   -2.048715   -0.043284
     18          1           0       -0.207365   -1.649272   -1.801054
     19          1           0       -0.393555   -0.037930   -2.063903
     20          1           0        0.461135    0.616570    1.210288
     21          1           0        0.523374    1.227835   -0.449824
     22          1           0        2.065773   -0.666717   -1.083330
     23          1           0        2.000410   -1.250965    0.575512
     24          1           0        3.002254    0.926017    1.351187
     25          1           0        3.055222    1.488157   -0.318537
     26          1           0        4.513414   -0.860494    0.648579
     27          1           0        5.158512    0.568069    0.234291
 ---------------------------------------------------------------------

 SCF Done:  E(RB3LYP) =  -474.448364790     A.U. after    1 cycles

 The electronic state is 1-A.
 Alpha  occ. eigenvalues --  -14.35884 -14.35509 -14.34189 -14.32274 -14.30678
 Alpha  occ. eigenvalues --  -10.20495 -10.20262 -10.19227 -10.18100 -10.17662
 Alpha  occ. eigenvalues --   -1.01407  -0.91972  -0.87713  -0.81538  -0.78363
 Alpha  occ. eigenvalues --   -0.72531  -0.66169  -0.64299  -0.58971  -0.58454
 Alpha  occ. eigenvalues --   -0.51173  -0.50361  -0.49251  -0.48219  -0.45921
 Alpha  occ. eigenvalues --   -0.45217  -0.44070  -0.42009  -0.40570  -0.39120
 Alpha  occ. eigenvalues --   -0.38441  -0.37293  -0.36216  -0.34945  -0.34778
 Alpha  occ. eigenvalues --   -0.33236  -0.26639  -0.24660  -0.23599  -0.22791
 Alpha  occ. eigenvalues --   -0.20468
 Alpha virt. eigenvalues --    0.06550   0.08249   0.10650   0.11922   0.12455
 Alpha virt. eigenvalues --    0.14010   0.14087   0.14539   0.15341   0.15985
 Alpha virt. eigenvalues --    0.16458   0.16588   0.17422   0.18703   0.19207

 Mulliken charges:
               1
     1  C   -0.293561
     2  N   -0.250895
     3  N   -0.055740
     4  C   -0.269558
     5  N   -0.077751
     6  N   -0.470189
     7  C   -0.118719
     8  C   -0.166987
     9  C   -0.145441
    10  N   -0.509701
    11  H    0.113790
    12  H    0.091682
    13  H    0.127162
    14  H    0.213471
    15  H    0.119747
    16  H    0.110603
    17  H    0.099313
    18  H    0.251633
    19  H    0.221304
    20  H    0.113090
    21  H    0.075837
    22  H    0.095646
    23  H    0.097417
    24  H    0.079983
    25  H    0.100467
    26  H    0.222711
    27  H    0.224685
 Sum of Mulliken charges =  -0.00000

 Dipole moment (field-independent basis, Debye):
    X=              1.8036    Y=              0.6345    Z=             -0.3450  Tot=              1.9429
 Quadrupole moment (field-independent basis, Debye-Ang):
   XX=            -65.5061   YY=            -60.9585   ZZ=            -61.5825
   XY=              0.6272   XZ=              6.2546   YZ=             -1.0329

  Exact polarizability: 111.796  -1.365  93.112  -1.132  -1.300  82.802
 Approx polarizability: 132.897  -2.350 131.652  -1.332  -1.905 127.616

                      1                      2                      3
                      A                      A                      A
 Frequencies --     54.3823                60.5155                80.9731
 Red. masses --      3.4948                 2.0466                 2.7702
 Frc consts  --      0.0061                 0.0044                 0.0107
 IR Inten    --      0.7894                 3.3412                 1.5712

                      4                      5                      6
                      A                      A                      A
 Frequencies --    100.8072               140.0004               145.6220
 Red. masses --      2.2805                 2.3500                 2.3648
 Frc consts  --      0.0137                 0.0271                 0.0295
 IR Inten    --      0.7370                 0.5375                 0.6058

                      7                      8                      9
                      A                      A                      A
 Frequencies --    208.2091               221.2197               246.3353
 Red. masses --      1.2746                 2.5878                 1.1251
 Frc consts  --      0.0326                 0.0746                 0.0402
 IR Inten    --      2.0438                 3.5510                 1.1571

                     10                     11                     12
                      A                      A                      A
 Frequencies --    265.1307               288.7231               320.9747
 Red. masses --      1.2102                 2.8989                 3.1924
 Frc consts  --      0.0501                 0.1424                 0.1938
 IR Inten    --     36.2532                 2.3778                 3.2984

                     13                     14                     15
                      A                      A                      A
 Frequencies --    335.3394               352.6952               374.7001
 Red. masses --      1.3151                 2.0325                 2.5214
 Frc consts  --      0.0871                 0.1490                 0.2086
 IR Inten    --     36.4649                 4.1080                 1.7993

                     16                     17                     18
                      A                      A                      A
 Frequencies --    460.4820               477.3899               576.4171
 Red. masses --      3.1576                 2.6908                 3.4566
 Frc consts  --      0.3945                 0.3613                 0.6767
 IR Inten    --     12.3226                12.6980                 7.0413

                     19                     20                     21
                      A                      A                      A
 Frequencies --    657.8496               733.9830               770.1344
 Red. masses --      3.0754                 3.3132                 1.1285
 Frc consts  --      0.7842                 1.0516                 0.3944
 IR Inten    --      8.7817                19.3902                 6.0325

                     22                     23                     24
                      A                      A                      A
 Frequencies --    799.9509               823.1401               849.4801
 Red. masses --      2.4971                 2.6161                 1.2135
 Frc consts  --      0.9415                 1.0444                 0.5159
 IR Inten    --     71.0463                93.2756                77.1090

                     25                     26                     27
                      A                      A                      A
 Frequencies --    903.6896               946.0444               988.3247
 Red. masses --      1.2923                 1.4652                 2.1637
 Frc consts  --      0.6218                 0.7726                 1.2452
 IR Inten    --     61.9941                33.7137                 3.8765

                     28                     29                     30
                      A                      A                      A
 Frequencies --   1043.4917              1063.4630              1089.4055
 Red. masses --      2.9162                 1.8212                 2.4757
 Frc consts  --      1.8709                 1.2135                 1.7311
 IR Inten    --      3.4435                10.2036                 6.5820

                     31                     32                     33
                      A                      A                      A
 Frequencies --   1094.1373              1130.5255              1144.5635
 Red. masses --      2.8273                 1.8047                 1.8916
 Frc consts  --      1.9942                 1.3590                 1.4600
 IR Inten    --     23.7125                 7.2474                11.9317

                     34                     35                     36
                      A                      A                      A
 Frequencies --   1155.9804              1164.3676              1183.2970
 Red. masses --      1.4709                 1.7855                 2.2381
 Frc consts  --      1.1581                 1.4262                 1.8464
 IR Inten    --      3.8614                27.4471                 2.9706

                     37                     38                     39
                      A                      A                      A
 Frequencies --   1197.0620              1223.9003              1243.6631
 Red. masses --      1.7639                 3.1060                 1.8931
 Frc consts  --      1.4892                 2.7412                 1.7251
 IR Inten    --      8.4269                 2.2059                10.3067

                     40                     41                     42
                      A                      A                      A
 Frequencies --   1260.4196              1287.6080              1309.9285
 Red. masses --      1.3922                 1.2293                 1.1992
 Frc consts  --      1.3032                 1.2009                 1.2124
 IR Inten    --      4.8593                 5.4894                 0.8614

                     43                     44                     45
                      A                      A                      A
 Frequencies --   1326.2402              1339.5693              1399.2181
 Red. masses --      1.2241                 1.2123                 1.4248
 Frc consts  --      1.2686                 1.2817                 1.6435
 IR Inten    --      5.7558                 1.7520                 8.7790

                     46                     47                     48
                      A                      A                      A
 Frequencies --   1431.1990              1431.9170              1441.8565
 Red. masses --      1.1782                 1.4647                 1.1563
 Frc consts  --      1.4219                 1.7694                 1.4163
 IR Inten    --      1.2417                19.7168                 0.8612

                     49                     50                     51
                      A                      A                      A
 Frequencies --   1470.7309              1484.5334              1491.0342
 Red. masses --      1.0820                 1.0805                 1.0823
 Frc consts  --      1.3789                 1.4030                 1.4177
 IR Inten    --      3.7884                 3.3155                 9.0221

                     52                     53                     54
                      A                      A                      A
 Frequencies --   1499.5732              1499.8367              1503.7612
 Red. masses --      1.0960                 1.1011                 1.0540
 Frc consts  --      1.4521                 1.4594                 1.4043
 IR Inten    --      3.9407                 1.4081                 2.6599

                     55                     56                     57
                      A                      A                      A
 Frequencies --   1520.0503              1525.0159              1659.7530
 Red. masses --      1.0910                 1.0827                 1.0884
 Frc consts  --      1.4852                 1.4835                 1.7665
 IR Inten    --      0.9675                 7.6899                21.8089

                     58                     59                     60
                      A                      A                      A
 Frequencies --   1668.0102              2915.6480              2936.5104
 Red. masses --      1.0801                 1.0708                 1.0727
 Frc consts  --      1.7705                 5.3631                 5.4499
 IR Inten    --     10.0990                39.8417                70.8350

                     61                     62                     63
                      A                      A                      A
 Frequencies --   2977.3727              2986.7465              3023.5557
 Red. masses --      1.0533                 1.0525                 1.0652
 Frc consts  --      5.5016                 5.5317                 5.7376
 IR Inten    --     89.4646                49.3960                11.6871

                     64                     65                     66
                      A                      A                      A
 Frequencies --   3035.5647              3062.5130              3069.2053
 Red. masses --      1.0806                 1.0801                 1.0997
 Frc consts  --      5.8667                 5.9686                 6.1035
 IR Inten    --     40.0936                47.9741                26.4915

                     67                     68                     69
                      A                      A                      A
 Frequencies --   3094.7009              3099.0379              3114.1350
 Red. masses --      1.0788                 1.0902                 1.1006
 Frc consts  --      6.0876                 6.1691                 6.2886
 IR Inten    --     24.1653                31.0083                20.3517

                     70                     71                     72
                      A                      A                      A
 Frequencies --   3142.2465              3414.4449              3429.3452
 Red. masses --      1.1045                 1.0555                 1.0721
 Frc consts  --      6.4251                 7.2503                 7.4284
 IR Inten    --     23.1127                 5.8169                10.6710

                     73                     74                     75
                      A                      A                      A
 Frequencies --   3483.4003              3556.5565              3560.6864
 Red. masses --      1.0496                 1.0864                 1.0917
 Frc consts  --      7.5036                 8.0963                 8.1551
 IR Inten    --      1.1332                 2.5307                 0.2096

 - Thermochemistry -
 -------------------
 Temperature   298.150 Kelvin.  Pressure   1.00000 Atm.
 Atom     1 has atomic number  6 and mass  12.00000

 Molecular mass:   147.14840 amu.
 Principal axes and moments of inertia in atomic units:
                           1         2         3
     Eigenvalues --   747.870173245.897563510.20869
           X            0.99999   0.00075   0.00368
           Y           -0.00068   0.99982  -0.01893
           Z           -0.00369   0.01893   0.99981
 This molecule is an asymmetric top.
 Rotational symmetry number  1.
 Warning -- assumption of classical behavior for rotation
           may cause significant error
 Rotational temperatures (Kelvin)      0.11581     0.02668     0.02467
 Rotational constants (GHZ):           2.41317     0.55601     0.51414
 Zero-point vibrational energy     642205.0 (Joules/Mol)
                                  153.49068 (Kcal/Mol)
 Warning -- explicit consideration of  18 degrees of freedom as
           vibrations may cause significant error
 Vibrational temperatures:     78.24    87.07   116.50   145.04   201.43
          (Kelvin)            209.52   299.57   318.29   354.42   381.46
                              415.41   461.81   482.48   507.45   539.11
                              662.53   686.86   829.34   946.50  1056.04
                             1108.05  1150.95  1184.32  1222.21  1300.21
                             1361.15  1421.98  1501.35  1530.09  1567.41
                             1574.22  1626.57  1646.77  1663.20  1675.27
                             1702.50  1722.31  1760.92  1789.35  1813.46
                             1852.58  1884.69  1908.16  1927.34  2013.16
                             2059.18  2060.21  2074.51  2116.05  2135.91
                             2145.27  2157.55  2157.93  2163.58  2187.01
                             2194.16  2388.01  2399.89  4194.97  4224.98
                             4283.78  4297.26  4350.22  4367.50  4406.27
                             4415.90  4452.58  4458.82  4480.55  4520.99
                             4912.62  4934.06  5011.84  5117.09  5123.03

 Zero-point correction=                           0.244603 (Hartree/Particle)
 Thermal correction to Energy=                    0.257549
 Thermal correction to Enthalpy=                  0.258493
 Thermal correction to Gibbs Free Energy=         0.205444
 Sum of electronic and zero-point Energies=           -474.203762
 Sum of electronic and thermal Energies=              -474.190816
 Sum of electronic and thermal Enthalpies=            -474.189871
 Sum of electronic and thermal Free Energies=         -474.242921

                     E (Thermal)             CV                S
                      KCal/Mol        Cal/Mol-Kelvin    Cal/Mol-Kelvin
 Total                  161.615             46.852            111.653
 Electronic               0.000              0.000              0.000
 Translational            0.889              2.981             40.869
 Rotational               0.889              2.981             30.522
 Vibrational            159.837             40.891             40.261
 Vibration     1          0.596              1.976              4.651
 Vibration     2          0.597              1.973              4.440
 Vibration     3          0.600              1.962              3.867
 Vibration     4          0.604              1.948              3.439
 Vibration     5          0.615              1.913              2.804
 Vibration     6          0.617              1.907              2.729
 Vibration     7          0.642              1.828              2.059
 Vibration     8          0.648              1.809              1.949
 Vibration     9          0.661              1.769              1.757
 Vibration    10          0.671              1.737              1.628
 Vibration    11          0.685              1.695              1.481
 Vibration    12          0.706              1.633              1.305
 Vibration    13          0.716              1.605              1.234
 Vibration    14          0.729              1.570              1.154
 Vibration    15          0.746              1.524              1.060
 Vibration    16          0.818              1.338              0.765
 Vibration    17          0.834              1.300              0.717
 Vibration    18          0.933              1.082              0.492

 Optimization completed.
    -- Stationary point found.
 Normal termination of Gaussian 16 at Tue Jun  1 13:36:14 2021.
