 Gaussian 16, Revision A.03,
 Gaussian 16:  ES64L-G16RevA.03 25-Dec-2016

 -----------------------------
 # opt freq b3lyp/6-31g(2df,p)
 -----------------------------

 -------------------
 Title Card Required
 -------------------
 Symbolic Z-matrix:
 Charge =  0 Multiplicity = 1

 SCF Done:  E(RB3LYP) =  -419.121321467     A.U. after   12 cycles
 SCF Done:  E(RB3LYP) =  -419.131437309     A.U. after   11 cycles
 SCF Done:  E(RB3LYP) =  -419.133026213     A.U. after   11 cycles
 SCF Done:  E(RB3LYP) =  -419.133650368     A.U. after   10 cycles
 SCF Done:  E(RB3LYP) =  -419.134146465     A.U. after   11 cycles
 SCF Done:  E(RB3LYP) =  -419.135754491     A.U. after   13 cycles
 SCF Done:  E(RB3LYP) =  -419.121656454     A.U. after   11 cycles
 SCF Done:  E(RB3LYP) =  -419.138775848     A.U. after   11 cycles
 SCF Done:  E(RB3LYP) =  -419.139377426     A.U. after   10 cycles
 SCF Done:  E(RB3LYP) =  -419.139651983     A.U. after   10 cycles
 SCF Done:  E(RB3LYP) =  -419.139821256     A.U. after   10 cycles
 SCF Done:  E(RB3LYP) =  -419.140021084     A.U. after   10 cycles
 SCF Done:  E(RB3LYP) =  -419.140057917     A.U. after    9 cycles
 SCF Done:  E(RB3LYP) =  -419.140069116     A.U. after    8 cycles
 SCF Done:  E(RB3LYP) =  -419.140072251     A.U. after    8 cycles
 SCF Done:  E(RB3LYP) =  -419.140072900     A.U. after    7 cycles
 SCF Done:  E(RB3LYP) =  -419.140073155     A.U. after    6 cycles
 SCF Done:  E(RB3LYP) =  -419.140073214     A.U. after    6 cycles
 Optimization completed.
    -- Stationary point found.
 Normal termination of Gaussian 16 at Tue Jun  1 05:28:20 2021.

 ----------------------------------------------------------------------
 #N Geom=AllCheck Guess=TCheck SCRF=Check GenChk RB3LYP/6-31G(2df,p) Fr
 eq
 ----------------------------------------------------------------------

 Structure from the checkpoint file:  "CNNpCpCCNCN.chk"
 -------------------
 Title Card Required
 -------------------
 Charge =  0 Multiplicity = 1

                         Standard orientation:
 ---------------------------------------------------------------------
 Center     Atomic      Atomic             Coordinates (Angstroms)
 Number     Number       Type             X           Y           Z
 ---------------------------------------------------------------------
      1          6           0        3.154622   -1.537815    0.361609
      2          7           0        2.902286   -0.290447   -0.344991
      3          7           0        1.760205    0.392988    0.169963
      4          6           0        1.960751    1.824096   -0.008232
      5          6           0        0.510850   -0.087859   -0.420372
      6          6           0       -0.736525    0.381638    0.333625
      7          7           0       -1.922216   -0.261342   -0.215845
      8          6           0       -3.171171    0.186726    0.372953
      9          7           0       -4.252681   -0.580041   -0.230635
     10          1           0        4.017846   -2.027116   -0.100996
     11          1           0        2.315414   -2.253658    0.356385
     12          1           0        3.397688   -1.312897    1.403474
     13          1           0        2.779580   -0.471974   -1.344376
     14          1           0        2.922887    2.098434    0.426752
     15          1           0        1.171060    2.380925    0.504113
     16          1           0        1.960855    2.128647   -1.071969
     17          1           0        0.534799   -1.183304   -0.387456
     18          1           0        0.421981    0.201513   -1.485468
     19          1           0       -0.864112    1.464624    0.218131
     20          1           0       -0.587273    0.194372    1.412593
     21          1           0       -1.867817   -1.269446   -0.099225
     22          1           0       -3.232282    1.278349    0.212604
     23          1           0       -3.225613    0.026092    1.466771
     24          1           0       -4.333457   -0.331366   -1.212153
     25          1           0       -5.135870   -0.352005    0.213880
 ---------------------------------------------------------------------

 SCF Done:  E(RB3LYP) =  -419.140073214     A.U. after    1 cycles

 The electronic state is 1-A.
 Alpha  occ. eigenvalues --  -14.33751 -14.33168 -14.30748 -14.30699 -10.22607
 Alpha  occ. eigenvalues --  -10.20136 -10.20014 -10.19437 -10.19077  -0.96860
 Alpha  occ. eigenvalues --   -0.91796  -0.85165  -0.81271  -0.72627  -0.66929
 Alpha  occ. eigenvalues --   -0.64021  -0.61265  -0.58290  -0.50761  -0.49705
 Alpha  occ. eigenvalues --   -0.48516  -0.46371  -0.45165  -0.44036  -0.41646
 Alpha  occ. eigenvalues --   -0.40856  -0.39584  -0.38681  -0.37885  -0.37371
 Alpha  occ. eigenvalues --   -0.36361  -0.35101  -0.33579  -0.24084  -0.22670
 Alpha  occ. eigenvalues --   -0.22203  -0.21575
 Alpha virt. eigenvalues --    0.08525   0.08701   0.09962   0.10555   0.13339
 Alpha virt. eigenvalues --    0.13582   0.14708   0.15103   0.16090   0.16545
 Alpha virt. eigenvalues --    0.16727   0.17719   0.18308   0.18849   0.19800

 Mulliken charges:
               1
     1  C   -0.290712
     2  N   -0.257447
     3  N   -0.066420
     4  C   -0.295903
     5  C   -0.137202
     6  C   -0.144671
     7  N   -0.281154
     8  C   -0.079395
     9  N   -0.513422
    10  H    0.113581
    11  H    0.093670
    12  H    0.129299
    13  H    0.201018
    14  H    0.126765
    15  H    0.115758
    16  H    0.085792
    17  H    0.096226
    18  H    0.081520
    19  H    0.102195
    20  H    0.088443
    21  H    0.216345
    22  H    0.082287
    23  H    0.079097
    24  H    0.228435
    25  H    0.225897
 Sum of Mulliken charges =  -0.00000

 Dipole moment (field-independent basis, Debye):
    X=             -1.1306    Y=              0.2673    Z=             -0.2869  Tot=              1.1967
 Quadrupole moment (field-independent basis, Debye-Ang):
   XX=            -55.1305   YY=            -56.8730   ZZ=            -57.3734
   XY=             -5.9359   XZ=             -2.1309   YZ=              0.2318

  Exact polarizability: 108.450  -2.579  84.062  -0.487   0.730  75.297
 Approx polarizability: 124.550  -2.176 118.167  -0.882   1.802 115.168

                      1                      2                      3
                      A                      A                      A
 Frequencies --     46.2389                52.8705                91.5575
 Red. masses --      2.1263                 2.7500                 3.3734
 Frc consts  --      0.0027                 0.0045                 0.0167
 IR Inten    --      1.5623                 0.3108                 0.8091

                      4                      5                      6
                      A                      A                      A
 Frequencies --    120.7989               139.6843               149.7961
 Red. masses --      2.1985                 1.8701                 2.5611
 Frc consts  --      0.0189                 0.0215                 0.0339
 IR Inten    --      1.7742                 1.1722                 5.9241

                      7                      8                      9
                      A                      A                      A
 Frequencies --    209.4439               213.0924               255.6332
 Red. masses --      1.4136                 1.3760                 1.6803
 Frc consts  --      0.0365                 0.0368                 0.0647
 IR Inten    --      0.2679                 0.1682                 8.8643

                     10                     11                     12
                      A                      A                      A
 Frequencies --    289.3782               300.0521               335.6847
 Red. masses --      1.3803                 2.0610                 2.7242
 Frc consts  --      0.0681                 0.1093                 0.1809
 IR Inten    --     37.9524                 2.2049                 0.2483

                     13                     14                     15
                      A                      A                      A
 Frequencies --    426.8214               467.3329               501.5927
 Red. masses --      2.7220                 2.6576                 2.9932
 Frc consts  --      0.2922                 0.3420                 0.4437
 IR Inten    --      0.7124                 7.3181                 1.1177

                     16                     17                     18
                      A                      A                      A
 Frequencies --    544.1408               775.1285               801.7193
 Red. masses --      3.3657                 2.4259                 1.1695
 Frc consts  --      0.5871                 0.8588                 0.4429
 IR Inten    --     20.3740                22.7839                47.4420

                     19                     20                     21
                      A                      A                      A
 Frequencies --    827.3886               862.3273               902.2036
 Red. masses --      1.2520                 1.2458                 1.6999
 Frc consts  --      0.5050                 0.5458                 0.8152
 IR Inten    --     19.7197               167.5349                50.7502

                     22                     23                     24
                      A                      A                      A
 Frequencies --    970.4764               992.5375              1039.7508
 Red. masses --      1.7263                 1.8101                 2.2280
 Frc consts  --      0.9579                 1.0506                 1.4191
 IR Inten    --      2.4634                11.5643                 6.9739

                     25                     26                     27
                      A                      A                      A
 Frequencies --   1084.2144              1087.3483              1092.2081
 Red. masses --      2.2546                 2.3262                 2.1957
 Frc consts  --      1.5615                 1.6205                 1.5432
 IR Inten    --      8.7891                13.4658                15.4957

                     28                     29                     30
                      A                      A                      A
 Frequencies --   1129.0660              1137.3106              1155.4691
 Red. masses --      2.9837                 1.4052                 1.5459
 Frc consts  --      2.2410                 1.0709                 1.2161
 IR Inten    --      5.1483                 8.4616                 5.6816

                     31                     32                     33
                      A                      A                      A
 Frequencies --   1167.7972              1202.4051              1220.7045
 Red. masses --      2.5375                 1.4179                 1.7568
 Frc consts  --      2.0389                 1.2078                 1.5424
 IR Inten    --     86.3957                 7.5739                 3.0384

                     34                     35                     36
                      A                      A                      A
 Frequencies --   1241.8355              1249.8333              1278.3365
 Red. masses --      2.3343                 2.2182                 1.4286
 Frc consts  --      2.1210                 2.0415                 1.3755
 IR Inten    --      8.0966                 3.8469                18.6144

                     37                     38                     39
                      A                      A                      A
 Frequencies --   1310.4270              1330.8922              1355.3408
 Red. masses --      1.2236                 1.1857                 1.3252
 Frc consts  --      1.2380                 1.2374                 1.4342
 IR Inten    --     14.2862                 0.6802                 6.8832

                     40                     41                     42
                      A                      A                      A
 Frequencies --   1408.2383              1441.4872              1445.9175
 Red. masses --      1.3461                 1.2916                 1.1906
 Frc consts  --      1.5729                 1.5812                 1.4666
 IR Inten    --      1.9074                 5.3296                 2.2560

                     43                     44                     45
                      A                      A                      A
 Frequencies --   1447.7170              1478.4552              1479.7034
 Red. masses --      1.2015                 1.0726                 1.0831
 Frc consts  --      1.4837                 1.3813                 1.3973
 IR Inten    --      2.9083                 7.2068                 6.8729

                     46                     47                     48
                      A                      A                      A
 Frequencies --   1489.8488              1491.3792              1500.2897
 Red. masses --      1.1000                 1.2583                 1.0588
 Frc consts  --      1.4385                 1.6489                 1.4041
 IR Inten    --      1.3463                76.4421                 2.5092

                     49                     50                     51
                      A                      A                      A
 Frequencies --   1507.9941              1519.7713              1528.6824
 Red. masses --      1.0920                 1.0865                 1.1108
 Frc consts  --      1.4631                 1.4785                 1.5294
 IR Inten    --      6.0431                 0.5658                10.6647

                     52                     53                     54
                      A                      A                      A
 Frequencies --   1540.0960              1642.6053              2914.9374
 Red. masses --      1.0861                 1.1006                 1.0615
 Frc consts  --      1.5179                 1.7497                 5.3141
 IR Inten    --      1.1310                29.2883                82.1206

                     55                     56                     57
                      A                      A                      A
 Frequencies --   2918.2813              2931.7175              2937.0331
 Red. masses --      1.0707                 1.0619                 1.0944
 Frc consts  --      5.3722                 5.3773                 5.5622
 IR Inten    --     10.7700                56.0199               121.0072

                     58                     59                     60
                      A                      A                      A
 Frequencies --   2942.4813              2961.0634              3039.2553
 Red. masses --      1.0733                 1.0571                 1.0843
 Frc consts  --      5.4749                 5.4611                 5.9013
 IR Inten    --    104.9214                64.8530                 1.3221

                     61                     62                     63
                      A                      A                      A
 Frequencies --   3058.9506              3068.2281              3080.7163
 Red. masses --      1.0902                 1.0747                 1.0726
 Frc consts  --      6.0106                 5.9609                 5.9976
 IR Inten    --     52.3223                43.8035                38.4542

                     64                     65                     66
                      A                      A                      A
 Frequencies --   3115.9928              3136.3743              3381.3385
 Red. masses --      1.1025                 1.1008                 1.0734
 Frc consts  --      6.3067                 6.3800                 7.2306
 IR Inten    --     20.0802                20.9328                17.7115

                     67                     68                     69
                      A                      A                      A
 Frequencies --   3496.6085              3505.1452              3583.2141
 Red. masses --      1.0493                 1.0731                 1.0924
 Frc consts  --      7.5584                 7.7677                 8.2641
 IR Inten    --      0.2657                 0.5040                 0.3972

 - Thermochemistry -
 -------------------
 Temperature   298.150 Kelvin.  Pressure   1.00000 Atm.
 Atom     1 has atomic number  6 and mass  12.00000

 Molecular mass:   132.13750 amu.
 Principal axes and moments of inertia in atomic units:
                           1         2         3
     Eigenvalues --   487.464773259.344623576.23135
           X            0.99996  -0.00842  -0.00196
           Y            0.00841   0.99995  -0.00517
           Z            0.00201   0.00516   0.99998
 This molecule is an asymmetric top.
 Rotational symmetry number  1.
 Warning -- assumption of classical behavior for rotation
           may cause significant error
 Rotational temperatures (Kelvin)      0.17768     0.02657     0.02422
 Rotational constants (GHZ):           3.70230     0.55371     0.50465
 Zero-point vibrational energy     600240.4 (Joules/Mol)
                                  143.46090 (Kcal/Mol)
 Warning -- explicit consideration of  16 degrees of freedom as
           vibrations may cause significant error
 Vibrational temperatures:     66.53    76.07   131.73   173.80   200.97
          (Kelvin)            215.52   301.34   306.59   367.80   416.35
                              431.71   482.98   614.10   672.39   721.68
                              782.90  1115.24  1153.50  1190.43  1240.70
                             1298.07  1396.30  1428.04  1495.97  1559.94
                             1564.45  1571.44  1624.47  1636.34  1662.46
                             1680.20  1729.99  1756.32  1786.72  1798.23
                             1839.24  1885.41  1914.86  1950.03  2026.14
                             2073.98  2080.35  2082.94  2127.17  2128.96
                             2143.56  2145.76  2158.58  2169.67  2186.61
                             2199.43  2215.85  2363.34  4193.94  4198.76
                             4218.09  4225.74  4233.57  4260.31  4372.81
                             4401.15  4414.50  4432.46  4483.22  4512.54
                             4864.99  5030.84  5043.12  5155.45

 Zero-point correction=                           0.228620 (Hartree/Particle)
 Thermal correction to Energy=                    0.240418
 Thermal correction to Enthalpy=                  0.241362
 Thermal correction to Gibbs Free Energy=         0.190390
 Sum of electronic and zero-point Energies=           -418.911454
 Sum of electronic and thermal Energies=              -418.899655
 Sum of electronic and thermal Enthalpies=            -418.898711
 Sum of electronic and thermal Free Energies=         -418.949683

                     E (Thermal)             CV                S
                      KCal/Mol        Cal/Mol-Kelvin    Cal/Mol-Kelvin
 Total                  150.864             41.492            107.280
 Electronic               0.000              0.000              0.000
 Translational            0.889              2.981             40.549
 Rotational               0.889              2.981             30.120
 Vibrational            149.087             35.530             36.612
 Vibration     1          0.595              1.979              4.972
 Vibration     2          0.596              1.976              4.707
 Vibration     3          0.602              1.955              3.627
 Vibration     4          0.609              1.932              3.088
 Vibration     5          0.615              1.914              2.808
 Vibration     6          0.618              1.903              2.675
 Vibration     7          0.642              1.826              2.049
 Vibration     8          0.644              1.821              2.017
 Vibration     9          0.666              1.753              1.691
 Vibration    10          0.686              1.693              1.478
 Vibration    11          0.693              1.674              1.417
 Vibration    12          0.717              1.604              1.233
 Vibration    13          0.788              1.412              0.869
 Vibration    14          0.825              1.323              0.745
 Vibration    15          0.857              1.246              0.654
 Vibration    16          0.899              1.153              0.556

 Optimization completed.
    -- Stationary point found.
 Normal termination of Gaussian 16 at Tue Jun  1 06:00:57 2021.
