 Gaussian 16, Revision A.03,
 Gaussian 16:  ES64L-G16RevA.03 25-Dec-2016

 -----------------------------
 # opt freq b3lyp/6-31g(2df,p)
 -----------------------------

 -------------------
 Title Card Required
 -------------------
 Symbolic Z-matrix:
 Charge =  0 Multiplicity = 1

 SCF Done:  E(RB3LYP) =  -340.462108020     A.U. after   12 cycles
 SCF Done:  E(RB3LYP) =  -340.472004662     A.U. after   11 cycles
 SCF Done:  E(RB3LYP) =  -340.473659599     A.U. after   11 cycles
 SCF Done:  E(RB3LYP) =  -340.474530176     A.U. after   11 cycles
 SCF Done:  E(RB3LYP) =  -340.475616511     A.U. after   11 cycles
 SCF Done:  E(RB3LYP) =  -340.472040883     A.U. after   11 cycles
 SCF Done:  E(RB3LYP) =  -340.480065180     A.U. after   11 cycles
 SCF Done:  E(RB3LYP) =  -340.451308694     A.U. after   12 cycles
 SCF Done:  E(RB3LYP) =  -340.484974471     A.U. after   12 cycles
 SCF Done:  E(RB3LYP) =  -340.485900479     A.U. after   10 cycles
 SCF Done:  E(RB3LYP) =  -340.489779881     A.U. after   10 cycles
 SCF Done:  E(RB3LYP) =  -340.489848145     A.U. after   10 cycles
 SCF Done:  E(RB3LYP) =  -340.489882105     A.U. after   10 cycles
 SCF Done:  E(RB3LYP) =  -340.489908937     A.U. after   10 cycles
 SCF Done:  E(RB3LYP) =  -340.489924957     A.U. after   10 cycles
 SCF Done:  E(RB3LYP) =  -340.489928489     A.U. after    8 cycles
 SCF Done:  E(RB3LYP) =  -340.489930553     A.U. after    9 cycles
 SCF Done:  E(RB3LYP) =  -340.489930668     A.U. after    7 cycles
 SCF Done:  E(RB3LYP) =  -340.489930763     A.U. after    7 cycles
 Optimization completed.
    -- Stationary point found.
 Normal termination of Gaussian 16 at Tue Jun  1 09:01:37 2021.

 ----------------------------------------------------------------------
 #N Geom=AllCheck Guess=TCheck SCRF=Check GenChk RB3LYP/6-31G(2df,p) Fr
 eq
 ----------------------------------------------------------------------

 Structure from the checkpoint file:  "CNNpCpNCN.chk"
 -------------------
 Title Card Required
 -------------------
 Charge =  0 Multiplicity = 1

                         Standard orientation:
 ---------------------------------------------------------------------
 Center     Atomic      Atomic             Coordinates (Angstroms)
 Number     Number       Type             X           Y           Z
 ---------------------------------------------------------------------
      1          6           0        1.590326   -1.742452    0.162851
      2          7           0        1.596462   -0.395931   -0.393251
      3          7           0        0.696728    0.499991    0.255696
      4          6           0        1.259831    1.844980    0.182600
      5          7           0       -0.621431    0.542703   -0.257775
      6          6           0       -1.527170   -0.480533    0.241554
      7          7           0       -2.871880   -0.086627   -0.158039
      8          1           0        2.379045   -2.319651   -0.331282
      9          1           0        0.645528   -2.295167    0.054563
     10          1           0        1.827249   -1.679918    1.227995
     11          1           0        1.406740   -0.414284   -1.397703
     12          1           0        2.256775    1.832876    0.625545
     13          1           0        0.611841    2.527701    0.734811
     14          1           0        1.346309    2.209775   -0.856702
     15          1           0       -0.633722    0.566800   -1.280801
     16          1           0       -1.345314   -0.540702    1.325635
     17          1           0       -1.355151   -1.485788   -0.176528
     18          1           0       -3.138656    0.757731    0.339243
     19          1           0       -3.537723   -0.812289    0.086780
 ---------------------------------------------------------------------

 SCF Done:  E(RB3LYP) =  -340.489930763     A.U. after    1 cycles

 The electronic state is 1-A.
 Alpha  occ. eigenvalues --  -14.36475 -14.33260 -14.33111 -14.30641 -10.22535
 Alpha  occ. eigenvalues --  -10.19628 -10.18941  -1.00198  -0.89780  -0.84763
 Alpha  occ. eigenvalues --   -0.77177  -0.66715  -0.63636  -0.60760  -0.52236
 Alpha  occ. eigenvalues --   -0.50875  -0.47390  -0.45612  -0.42574  -0.42234
 Alpha  occ. eigenvalues --   -0.40860  -0.38855  -0.38013  -0.37669  -0.36495
 Alpha  occ. eigenvalues --   -0.25739  -0.24169  -0.23055  -0.20917
 Alpha virt. eigenvalues --    0.07727   0.09057   0.11103   0.13587   0.14469
 Alpha virt. eigenvalues --    0.14968   0.15795   0.16593   0.17012   0.18178
 Alpha virt. eigenvalues --    0.18890   0.19160   0.20862   0.22080   0.23323

 Mulliken charges:
               1
     1  C   -0.293567
     2  N   -0.249765
     3  N   -0.061092
     4  C   -0.264982
     5  N   -0.248061
     6  C   -0.072798
     7  N   -0.506455
     8  H    0.114931
     9  H    0.100708
    10  H    0.131092
    11  H    0.194018
    12  H    0.123040
    13  H    0.120218
    14  H    0.085015
    15  H    0.196710
    16  H    0.094439
    17  H    0.083752
    18  H    0.227936
    19  H    0.224862
 Sum of Mulliken charges =   0.00000

 Dipole moment (field-independent basis, Debye):
    X=             -0.6538    Y=             -0.9160    Z=             -0.1195  Tot=              1.1317
 Quadrupole moment (field-independent basis, Debye-Ang):
   XX=            -44.0246   YY=            -42.4464   ZZ=            -43.6564
   XY=              0.9291   XZ=             -4.0820   YZ=              0.4706

  Exact polarizability:  75.477  -0.252  69.128  -0.419  -0.007  55.343
 Approx polarizability:  94.048  -0.941  90.893   0.206   0.433  84.714

                      1                      2                      3
                      A                      A                      A
 Frequencies --     40.1179                86.9914               123.6357
 Red. masses --      1.7906                 2.4378                 2.2492
 Frc consts  --      0.0017                 0.0109                 0.0203
 IR Inten    --      1.5131                 3.5608                 0.8846

                      4                      5                      6
                      A                      A                      A
 Frequencies --    192.5724               206.3414               244.3836
 Red. masses --      1.8772                 1.5960                 1.2745
 Frc consts  --      0.0410                 0.0400                 0.0448
 IR Inten    --      2.9798                 0.7177                 1.9710

                      7                      8                      9
                      A                      A                      A
 Frequencies --    283.4807               314.4030               386.7711
 Red. masses --      1.1981                 2.0699                 2.9653
 Frc consts  --      0.0567                 0.1206                 0.2614
 IR Inten    --     31.3331                24.1787                 1.0600

                     10                     11                     12
                      A                      A                      A
 Frequencies --    455.0311               499.5158               555.9697
 Red. masses --      2.7275                 2.4825                 3.2220
 Frc consts  --      0.3327                 0.3649                 0.5868
 IR Inten    --      1.4716                 2.8126                 5.3087

                     13                     14                     15
                      A                      A                      A
 Frequencies --    710.0867               750.3293               854.8425
 Red. masses --      1.8261                 2.0022                 1.2690
 Frc consts  --      0.5425                 0.6641                 0.5464
 IR Inten    --     68.8479                55.0119               153.4884

                     16                     17                     18
                      A                      A                      A
 Frequencies --    903.8358               948.0742              1032.8216
 Red. masses --      1.5090                 1.5440                 2.5284
 Frc consts  --      0.7263                 0.8177                 1.5891
 IR Inten    --     72.2751                 3.1536                16.8910

                     19                     20                     21
                      A                      A                      A
 Frequencies --   1083.5239              1100.6047              1128.9352
 Red. masses --      2.8494                 2.7907                 1.6184
 Frc consts  --      1.9710                 1.9917                 1.2153
 IR Inten    --     27.3758                10.9510                 7.6324

                     22                     23                     24
                      A                      A                      A
 Frequencies --   1144.9358              1161.9985              1185.1544
 Red. masses --      1.7156                 1.7155                 1.5494
 Frc consts  --      1.3251                 1.3648                 1.2822
 IR Inten    --     30.0769                14.1517                 6.1504

                     25                     26                     27
                      A                      A                      A
 Frequencies --   1216.1120              1228.7530              1245.8308
 Red. masses --      1.8746                 2.3984                 1.9305
 Frc consts  --      1.6335                 2.1335                 1.7654
 IR Inten    --      2.6230                 3.6611                 2.8670

                     28                     29                     30
                      A                      A                      A
 Frequencies --   1319.2952              1424.4479              1436.7565
 Red. masses --      1.2973                 1.2446                 1.1760
 Frc consts  --      1.3304                 1.4879                 1.4302
 IR Inten    --      3.9803                19.5182                 1.0187

                     31                     32                     33
                      A                      A                      A
 Frequencies --   1443.4651              1463.0682              1478.0835
 Red. masses --      1.1397                 1.2048                 1.0719
 Frc consts  --      1.3991                 1.5194                 1.3797
 IR Inten    --      1.0250                14.1388                 5.5481

                     34                     35                     36
                      A                      A                      A
 Frequencies --   1491.2120              1495.4766              1510.0140
 Red. masses --      1.0818                 1.0472                 1.0741
 Frc consts  --      1.4173                 1.3799                 1.4430
 IR Inten    --      6.2720                 2.7020                 5.4163

                     37                     38                     39
                      A                      A                      A
 Frequencies --   1532.3973              1541.8093              1640.4581
 Red. masses --      1.1333                 1.1455                 1.1011
 Frc consts  --      1.5680                 1.6044                 1.7459
 IR Inten    --      9.1275                10.8569                28.9906

                     40                     41                     42
                      A                      A                      A
 Frequencies --   2950.6646              2956.8047              2991.8652
 Red. masses --      1.0594                 1.0594                 1.0721
 Frc consts  --      5.4342                 5.4572                 5.6542
 IR Inten    --     78.0472                47.5065                53.6483

                     43                     44                     45
                      A                      A                      A
 Frequencies --   2998.4625              3070.2919              3095.6456
 Red. masses --      1.0753                 1.0855                 1.0709
 Frc consts  --      5.6962                 6.0287                 6.0463
 IR Inten    --     88.5976                41.0222                29.6444

                     46                     47                     48
                      A                      A                      A
 Frequencies --   3117.7131              3148.5802              3385.2877
 Red. masses --      1.1008                 1.1053                 1.0709
 Frc consts  --      6.3039                 6.4560                 7.2311
 IR Inten    --     17.3059                20.7261                17.0575

                     49                     50                     51
                      A                      A                      A
 Frequencies --   3398.6861              3495.8463              3584.1568
 Red. masses --      1.0749                 1.0489                 1.0929
 Frc consts  --      7.3157                 7.5522                 8.2721
 IR Inten    --      6.6776                 0.5856                 0.5587

 - Thermochemistry -
 -------------------
 Temperature   298.150 Kelvin.  Pressure   1.00000 Atm.
 Atom     1 has atomic number  6 and mass  12.00000

 Molecular mass:   104.10620 amu.
 Principal axes and moments of inertia in atomic units:
                           1         2         3
     Eigenvalues --   489.788441074.347971459.71272
           X            0.99996   0.00523  -0.00685
           Y           -0.00528   0.99996  -0.00676
           Z            0.00682   0.00680   0.99995
 This molecule is an asymmetric top.
 Rotational symmetry number  1.
 Warning -- assumption of classical behavior for rotation
           may cause significant error
 Rotational temperatures (Kelvin)      0.17684     0.08062     0.05934
 Rotational constants (GHZ):           3.68474     1.67985     1.23637
 Zero-point vibrational energy     448931.8 (Joules/Mol)
                                  107.29728 (Kcal/Mol)
 Warning -- explicit consideration of  12 degrees of freedom as
           vibrations may cause significant error
 Vibrational temperatures:     57.72   125.16   177.88   277.07   296.88
          (Kelvin)            351.61   407.87   452.36   556.48   654.69
                              718.69   799.92  1021.66  1079.56  1229.93
                             1300.42  1364.07  1486.00  1558.95  1583.52
                             1624.29  1647.31  1671.86  1705.17  1749.71
                             1767.90  1792.47  1898.17  2049.46  2067.17
                             2076.82  2105.03  2126.63  2145.52  2151.66
                             2172.57  2204.78  2218.32  2360.25  4245.35
                             4254.18  4304.63  4314.12  4417.47  4453.94
                             4485.69  4530.10  4870.67  4889.95  5029.74
                             5156.80

 Zero-point correction=                           0.170989 (Hartree/Particle)
 Thermal correction to Energy=                    0.180222
 Thermal correction to Enthalpy=                  0.181166
 Thermal correction to Gibbs Free Energy=         0.136730
 Sum of electronic and zero-point Energies=           -340.318942
 Sum of electronic and thermal Energies=              -340.309709
 Sum of electronic and thermal Enthalpies=            -340.308765
 Sum of electronic and thermal Free Energies=         -340.353201

                     E (Thermal)             CV                S
                      KCal/Mol        Cal/Mol-Kelvin    Cal/Mol-Kelvin
 Total                  113.091             32.314             93.524
 Electronic               0.000              0.000              0.000
 Translational            0.889              2.981             39.838
 Rotational               0.889              2.981             28.131
 Vibrational            111.313             26.352             25.555
 Vibration     1          0.594              1.981              5.253
 Vibration     2          0.601              1.958              3.727
 Vibration     3          0.610              1.929              3.043
 Vibration     4          0.635              1.850              2.203
 Vibration     5          0.641              1.831              2.076
 Vibration     6          0.660              1.772              1.771
 Vibration     7          0.682              1.704              1.513
 Vibration     8          0.702              1.646              1.339
 Vibration     9          0.755              1.498              1.013
 Vibration    10          0.813              1.350              0.781
 Vibration    11          0.855              1.251              0.659
 Vibration    12          0.911              1.127              0.532

 Optimization completed.
    -- Stationary point found.
 Normal termination of Gaussian 16 at Tue Jun  1 09:21:53 2021.
