 Gaussian 16, Revision A.03,
 Gaussian 16:  ES64L-G16RevA.03 25-Dec-2016

 -----------------------------
 # opt freq b3lyp/6-31g(2df,p)
 -----------------------------

 -------------------
 Title Card Required
 -------------------
 Symbolic Z-matrix:
 Charge =  0 Multiplicity = 1

 SCF Done:  E(RB3LYP) =  -378.560000351     A.U. after   13 cycles
 SCF Done:  E(RB3LYP) =  -378.566761588     A.U. after   13 cycles
 SCF Done:  E(RB3LYP) =  -378.568095945     A.U. after   13 cycles
 SCF Done:  E(RB3LYP) =  -378.568732612     A.U. after   13 cycles
 SCF Done:  E(RB3LYP) =  -378.569414304     A.U. after   13 cycles
 SCF Done:  E(RB3LYP) =  -378.570502012     A.U. after   15 cycles
 SCF Done:  E(RB3LYP) =  -378.571834663     A.U. after   15 cycles
 SCF Done:  E(RB3LYP) =  -378.575231212     A.U. after   14 cycles
 SCF Done:  E(RB3LYP) =  -378.576281367     A.U. after   13 cycles
 SCF Done:  E(RB3LYP) =  -378.575133709     A.U. after   15 cycles
 SCF Done:  E(RB3LYP) =  -378.577349219     A.U. after   13 cycles
 SCF Done:  E(RB3LYP) =  -378.577463430     A.U. after   13 cycles
 SCF Done:  E(RB3LYP) =  -378.577490020     A.U. after   12 cycles
 SCF Done:  E(RB3LYP) =  -378.577493077     A.U. after    9 cycles
 SCF Done:  E(RB3LYP) =  -378.577493570     A.U. after    8 cycles
 SCF Done:  E(RB3LYP) =  -378.577493608     A.U. after    7 cycles
 Optimization completed.
    -- Stationary point found.
 Normal termination of Gaussian 16 at Tue Jun  1 06:22:39 2021.

 ----------------------------------------------------------------------
 #N Geom=AllCheck Guess=TCheck SCRF=Check GenChk RB3LYP/6-31G(2df,p) Fr
 eq
 ----------------------------------------------------------------------

 Structure from the checkpoint file:  "CNNpCpCCNdN.chk"
 -------------------
 Title Card Required
 -------------------
 Charge =  0 Multiplicity = 1

                         Standard orientation:
 ---------------------------------------------------------------------
 Center     Atomic      Atomic             Coordinates (Angstroms)
 Number     Number       Type             X           Y           Z
 ---------------------------------------------------------------------
      1          6           0        2.619997   -1.382386    0.235845
      2          7           0        2.219216   -0.138533   -0.405985
      3          7           0        1.055407    0.424444    0.195835
      4          6           0        1.108623    1.871852    0.040025
      5          6           0       -0.178165   -0.162014   -0.326379
      6          6           0       -1.405845    0.183896    0.527365
      7          7           0       -2.504537   -0.712811    0.148187
      8          7           0       -3.490990   -0.100921   -0.291199
      9          1           0        3.497894   -1.772045   -0.289134
     10          1           0        1.849919   -2.171660    0.242499
     11          1           0        2.897088   -1.173169    1.272351
     12          1           0        2.058824   -0.292739   -1.404672
     13          1           0        2.061477    2.229897    0.432165
     14          1           0        0.295865    2.339768    0.602614
     15          1           0        1.023825    2.192358   -1.015218
     16          1           0       -0.067650   -1.250329   -0.318965
     17          1           0       -0.363591    0.143943   -1.375105
     18          1           0       -1.714628    1.229680    0.424902
     19          1           0       -1.163462   -0.030428    1.574588
     20          1           0       -4.196893   -0.818612   -0.535041
 ---------------------------------------------------------------------

 SCF Done:  E(RB3LYP) =  -378.577493608     A.U. after    1 cycles

 The electronic state is 1-A.
 Alpha  occ. eigenvalues --  -14.38397 -14.37352 -14.34555 -14.33774 -10.21237
 Alpha  occ. eigenvalues --  -10.20889 -10.19856 -10.19636  -1.02870  -0.97557
 Alpha  occ. eigenvalues --   -0.82724  -0.77788  -0.69384  -0.66617  -0.60815
 Alpha  occ. eigenvalues --   -0.58039  -0.51619  -0.49027  -0.47763  -0.46313
 Alpha  occ. eigenvalues --   -0.43176  -0.42663  -0.41362  -0.40019  -0.38484
 Alpha  occ. eigenvalues --   -0.37905  -0.36628  -0.34457  -0.34320  -0.23518
 Alpha  occ. eigenvalues --   -0.22792  -0.22547
 Alpha virt. eigenvalues --   -0.04168   0.08038   0.10477   0.10881   0.12031
 Alpha virt. eigenvalues --    0.13282   0.14408   0.15301   0.16093   0.16336
 Alpha virt. eigenvalues --    0.17392   0.17926   0.19547   0.21167   0.21362

 Mulliken charges:
               1
     1  C   -0.294124
     2  N   -0.256646
     3  N   -0.068792
     4  C   -0.299298
     5  C   -0.133195
     6  C   -0.126256
     7  N   -0.110939
     8  N   -0.277472
     9  H    0.116229
    10  H    0.098284
    11  H    0.131221
    12  H    0.202499
    13  H    0.129949
    14  H    0.117969
    15  H    0.089216
    16  H    0.118849
    17  H    0.082819
    18  H    0.108933
    19  H    0.127702
    20  H    0.243055
 Sum of Mulliken charges =  -0.00000

 Dipole moment (field-independent basis, Debye):
    X=             -0.0119    Y=             -0.6164    Z=             -0.6819  Tot=              0.9193
 Quadrupole moment (field-independent basis, Debye-Ang):
   XX=            -51.0479   YY=            -49.6707   ZZ=            -48.5986
   XY=              0.3589   XZ=             -0.5498   YZ=              1.5532

  Exact polarizability:  98.295  -1.717  71.596   4.504   0.517  61.049
 Approx polarizability: 123.885  -4.420 100.033   8.156  -0.519  95.099

                      1                      2                      3
                      A                      A                      A
 Frequencies --     56.9024                65.3858                91.9608
 Red. masses --      3.4918                 3.8511                 2.7885
 Frc consts  --      0.0067                 0.0097                 0.0139
 IR Inten    --      0.2738                 0.2321                 0.2606

                      4                      5                      6
                      A                      A                      A
 Frequencies --    137.1406               185.1018               219.1866
 Red. masses --      1.9302                 2.0880                 1.3477
 Frc consts  --      0.0214                 0.0421                 0.0381
 IR Inten    --      0.7422                 1.0745                 0.2045

                      7                      8                      9
                      A                      A                      A
 Frequencies --    237.9810               305.3461               339.7418
 Red. masses --      1.4160                 2.0152                 3.4116
 Frc consts  --      0.0472                 0.1107                 0.2320
 IR Inten    --      0.6141                 6.1577                 0.0991

                     10                     11                     12
                      A                      A                      A
 Frequencies --    423.7795               456.2610               493.6167
 Red. masses --      3.1804                 2.5603                 3.0780
 Frc consts  --      0.3365                 0.3140                 0.4419
 IR Inten    --      2.8685                 8.9124                 2.0494

                     13                     14                     15
                      A                      A                      A
 Frequencies --    575.5637               770.9499               828.0493
 Red. masses --      2.5466                 2.3982                 1.2195
 Frc consts  --      0.4971                 0.8398                 0.4926
 IR Inten    --     17.9399                28.9787                 1.3302

                     16                     17                     18
                      A                      A                      A
 Frequencies --    887.6966               898.4672               968.3090
 Red. masses --      1.4808                 1.7279                 2.6731
 Frc consts  --      0.6875                 0.8218                 1.4767
 IR Inten    --     70.1747                18.8859                 6.3743

                     19                     20                     21
                      A                      A                      A
 Frequencies --    995.6086              1067.8274              1103.7456
 Red. masses --      2.2439                 2.2326                 2.0052
 Frc consts  --      1.3105                 1.4999                 1.4393
 IR Inten    --     34.7916                11.9264                21.7120

                     22                     23                     24
                      A                      A                      A
 Frequencies --   1117.0264              1137.5621              1156.4266
 Red. masses --      2.0645                 1.7036                 1.4168
 Frc consts  --      1.5177                 1.2989                 1.1163
 IR Inten    --      7.9481                 6.6829                 2.4901

                     25                     26                     27
                      A                      A                      A
 Frequencies --   1198.9021              1217.6460              1245.5788
 Red. masses --      1.6770                 1.9024                 1.9132
 Frc consts  --      1.4202                 1.6618                 1.7488
 IR Inten    --      5.0740                 3.2346                 8.3482

                     28                     29                     30
                      A                      A                      A
 Frequencies --   1252.3437              1320.4045              1329.9193
 Red. masses --      1.6710                 1.3090                 1.2873
 Frc consts  --      1.5441                 1.3446                 1.3414
 IR Inten    --      2.7873                11.0923                14.1805

                     31                     32                     33
                      A                      A                      A
 Frequencies --   1395.8724              1445.1412              1447.2741
 Red. masses --      1.3707                 1.1733                 1.1534
 Frc consts  --      1.5736                 1.4437                 1.4234
 IR Inten    --      8.0283                 0.9809                 0.7779

                     34                     35                     36
                      A                      A                      A
 Frequencies --   1474.6195              1479.4882              1483.9355
 Red. masses --      1.0803                 1.0735                 1.0829
 Frc consts  --      1.3840                 1.3845                 1.4050
 IR Inten    --      4.0090                 8.7446                 1.8201

                     37                     38                     39
                      A                      A                      A
 Frequencies --   1492.8817              1497.7974              1500.9856
 Red. masses --      1.1050                 1.2686                 1.0603
 Frc consts  --      1.4510                 1.6768                 1.4075
 IR Inten    --      1.9007                31.6717                 1.2334

                     40                     41                     42
                      A                      A                      A
 Frequencies --   1510.3284              1529.1733              1653.2554
 Red. masses --      1.0847                 1.1115                 9.8548
 Frc consts  --      1.4578                 1.5313                15.8701
 IR Inten    --      4.3828                12.0622                 6.6132

                     43                     44                     45
                      A                      A                      A
 Frequencies --   2911.2178              2936.3923              2965.4129
 Red. masses --      1.0716                 1.0603                 1.0565
 Frc consts  --      5.3511                 5.3866                 5.4739
 IR Inten    --     44.6560                85.5925                62.2134

                     46                     47                     48
                      A                      A                      A
 Frequencies --   3031.0154              3070.8889              3077.3625
 Red. masses --      1.0551                 1.0753                 1.0875
 Frc consts  --      5.7110                 5.9746                 6.0681
 IR Inten    --     13.2519                41.5235                13.5110

                     49                     50                     51
                      A                      A                      A
 Frequencies --   3081.5300              3096.6312              3118.3168
 Red. masses --      1.0754                 1.1036                 1.1026
 Frc consts  --      6.0168                 6.2352                 6.3170
 IR Inten    --     19.7802                30.7551                18.8801

                     52                     53                     54
                      A                      A                      A
 Frequencies --   3138.7187              3241.1986              3381.6152
 Red. masses --      1.1011                 1.0737                 1.0734
 Frc consts  --      6.3910                 6.6455                 7.2320
 IR Inten    --     18.9622                31.0283                16.1163

 - Thermochemistry -
 -------------------
 Temperature   298.150 Kelvin.  Pressure   1.00000 Atm.
 Atom     1 has atomic number  6 and mass  12.00000

 Molecular mass:   116.10620 amu.
 Principal axes and moments of inertia in atomic units:
                           1         2         3
     Eigenvalues --   443.576211928.890272229.80709
           X            0.99992  -0.01256   0.00087
           Y            0.01255   0.99992   0.00187
           Z           -0.00089  -0.00186   1.00000
 This molecule is an asymmetric top.
 Rotational symmetry number  1.
 Warning -- assumption of classical behavior for rotation
           may cause significant error
 Rotational temperatures (Kelvin)      0.19526     0.04490     0.03884
 Rotational constants (GHZ):           4.06862     0.93564     0.80937
 Zero-point vibrational energy     460834.3 (Joules/Mol)
                                  110.14205 (Kcal/Mol)
 Warning -- explicit consideration of  13 degrees of freedom as
           vibrations may cause significant error
 Vibrational temperatures:     81.87    94.08   132.31   197.31   266.32
          (Kelvin)            315.36   342.40   439.32   488.81   609.72
                              656.46   710.20   828.11  1109.22  1191.38
                             1277.20  1292.69  1393.18  1432.46  1536.37
                             1588.04  1607.15  1636.70  1663.84  1724.95
                             1751.92  1792.11  1801.84  1899.77  1913.46
                             2008.35  2079.24  2082.30  2121.65  2128.65
                             2135.05  2147.92  2155.00  2159.58  2173.03
                             2200.14  2378.67  4188.59  4224.81  4266.57
                             4360.96  4418.32  4427.64  4433.63  4455.36
                             4486.56  4515.92  4663.36  4865.39

 Zero-point correction=                           0.175523 (Hartree/Particle)
 Thermal correction to Energy=                    0.185357
 Thermal correction to Enthalpy=                  0.186301
 Thermal correction to Gibbs Free Energy=         0.139956
 Sum of electronic and zero-point Energies=           -378.401971
 Sum of electronic and thermal Energies=              -378.392137
 Sum of electronic and thermal Enthalpies=            -378.391193
 Sum of electronic and thermal Free Energies=         -378.437538

                     E (Thermal)             CV                S
                      KCal/Mol        Cal/Mol-Kelvin    Cal/Mol-Kelvin
 Total                  116.313             34.025             97.541
 Electronic               0.000              0.000              0.000
 Translational            0.889              2.981             40.163
 Rotational               0.889              2.981             29.035
 Vibrational            114.536             28.064             28.343
 Vibration     1          0.596              1.975              4.562
 Vibration     2          0.597              1.971              4.288
 Vibration     3          0.602              1.955              3.618
 Vibration     4          0.614              1.916              2.843
 Vibration     5          0.631              1.860              2.276
 Vibration     6          0.647              1.812              1.966
 Vibration     7          0.656              1.782              1.818
 Vibration     8          0.696              1.664              1.387
 Vibration     9          0.720              1.596              1.213
 Vibration    10          0.786              1.419              0.879
 Vibration    11          0.814              1.347              0.777
 Vibration    12          0.849              1.264              0.674
 Vibration    13          0.932              1.084              0.494

 Optimization completed.
    -- Stationary point found.
 Normal termination of Gaussian 16 at Tue Jun  1 06:45:59 2021.
