 Gaussian 16, Revision A.03,
 Gaussian 16:  ES64L-G16RevA.03 25-Dec-2016

 -----------------------------
 # opt freq b3lyp/6-31g(2df,p)
 -----------------------------

 -------------------
 Title Card Required
 -------------------
 Symbolic Z-matrix:
 Charge =  0 Multiplicity = 1

 SCF Done:  E(RB3LYP) =  -446.295180468     A.U. after   16 cycles
 SCF Done:  E(RB3LYP) =  -446.304005948     A.U. after   15 cycles
 SCF Done:  E(RB3LYP) =  -446.306995485     A.U. after   15 cycles
 SCF Done:  E(RB3LYP) =  -446.308946363     A.U. after   14 cycles
 SCF Done:  E(RB3LYP) =  -446.312010496     A.U. after   13 cycles
 SCF Done:  E(RB3LYP) =  -446.313784288     A.U. after   14 cycles
 SCF Done:  E(RB3LYP) =  -446.314637474     A.U. after   13 cycles
 SCF Done:  E(RB3LYP) =  -446.314780072     A.U. after   14 cycles
 SCF Done:  E(RB3LYP) =  -446.314995187     A.U. after   12 cycles
 SCF Done:  E(RB3LYP) =  -446.315014425     A.U. after   11 cycles
 SCF Done:  E(RB3LYP) =  -446.315018349     A.U. after   10 cycles
 SCF Done:  E(RB3LYP) =  -446.315019232     A.U. after    9 cycles
 Optimization completed.
    -- Stationary point found.
 Normal termination of Gaussian 16 at Mon May 31 12:26:38 2021.

 ----------------------------------------------------------------------
 #N Geom=AllCheck Guess=TCheck SCRF=Check GenChk RB3LYP/6-31G(2df,p) Fr
 eq
 ----------------------------------------------------------------------

 Structure from the checkpoint file:  "CNNpCtNpNdNCdN.chk"
 -------------------
 Title Card Required
 -------------------
 Charge =  0 Multiplicity = 1

                         Standard orientation:
 ---------------------------------------------------------------------
 Center     Atomic      Atomic             Coordinates (Angstroms)
 Number     Number       Type             X           Y           Z
 ---------------------------------------------------------------------
      1          6           0        2.802502   -0.939769   -0.633342
      2          7           0        1.882725   -0.884792    0.506728
      3          7           0        0.775773   -0.062962    0.285752
      4          6           0        0.925059    1.264379    0.085234
      5          7           0        1.149556    2.392210   -0.068469
      6          7           0       -0.428733   -0.691941    0.237770
      7          7           0       -1.378338    0.092855    0.011762
      8          6           0       -2.616016   -0.597421   -0.028910
      9          7           0       -3.717730   -0.013042   -0.243829
     10          1           0        3.649565   -1.562872   -0.337261
     11          1           0        3.174697    0.045002   -0.946955
     12          1           0        2.296182   -1.418270   -1.474949
     13          1           0        2.350323   -0.567228    1.350194
     14          1           0       -2.570280   -1.676347    0.136727
     15          1           0       -3.552530    0.990285   -0.373639
 ---------------------------------------------------------------------

 SCF Done:  E(RB3LYP) =  -446.315019232     A.U. after    1 cycles

 The electronic state is 1-A.
 Alpha  occ. eigenvalues --  -14.47482 -14.45344 -14.40422 -14.39275 -14.35050
 Alpha  occ. eigenvalues --  -14.33048 -10.26793 -10.26256 -10.23891  -1.13231
 Alpha  occ. eigenvalues --   -1.02915  -0.92667  -0.92185  -0.86799  -0.75305
 Alpha  occ. eigenvalues --   -0.71833  -0.64034  -0.58822  -0.56108  -0.52827
 Alpha  occ. eigenvalues --   -0.48423  -0.47384  -0.45049  -0.42753  -0.42032
 Alpha  occ. eigenvalues --   -0.39589  -0.38432  -0.35679  -0.34043  -0.29921
 Alpha  occ. eigenvalues --   -0.29457  -0.27982  -0.27385
 Alpha virt. eigenvalues --   -0.08772   0.00081   0.02375   0.05484   0.07688
 Alpha virt. eigenvalues --    0.09249   0.11097   0.11550   0.13385   0.14507
 Alpha virt. eigenvalues --    0.15528   0.17468   0.20843   0.24801   0.25687

 Mulliken charges:
               1
     1  C   -0.324702
     2  N   -0.253007
     3  N   -0.083294
     4  C    0.416341
     5  N   -0.323333
     6  N   -0.056488
     7  N   -0.178802
     8  C    0.154709
     9  N   -0.419530
    10  H    0.144927
    11  H    0.141762
    12  H    0.153535
    13  H    0.259949
    14  H    0.128988
    15  H    0.238944
 Sum of Mulliken charges =  -0.00000

 Dipole moment (field-independent basis, Debye):
    X=              3.6158    Y=             -2.3916    Z=              0.5027  Tot=              4.3642
 Quadrupole moment (field-independent basis, Debye-Ang):
   XX=            -53.1677   YY=            -59.9992   ZZ=            -49.0641
   XY=             -6.6927   XZ=              0.5861   YZ=              1.1571

  Exact polarizability: 122.152   1.076  76.028   4.182  -2.874  44.761
 Approx polarizability: 179.246  -0.604 128.838  11.845  -9.167  69.365

                      1                      2                      3
                      A                      A                      A
 Frequencies --     57.3520                97.8007               115.2475
 Red. masses --      3.6361                 3.6999                 7.5508
 Frc consts  --      0.0070                 0.0209                 0.0591
 IR Inten    --      0.3643                 2.1338                 2.4885

                      4                      5                      6
                      A                      A                      A
 Frequencies --    122.4755               185.4447               207.8760
 Red. masses --      2.6393                 1.8229                 2.8962
 Frc consts  --      0.0233                 0.0369                 0.0737
 IR Inten    --      0.3218                 3.6569                 1.3537

                      7                      8                      9
                      A                      A                      A
 Frequencies --    251.3392               350.5317               382.4615
 Red. masses --      2.3058                 6.0120                 4.0608
 Frc consts  --      0.0858                 0.4352                 0.3500
 IR Inten    --      5.5561                 0.6770                13.2512

                     10                     11                     12
                      A                      A                      A
 Frequencies --    406.5259               443.5625               534.6298
 Red. masses --      4.5045                 5.9223                10.0139
 Frc consts  --      0.4386                 0.6865                 1.6864
 IR Inten    --      1.3633                 6.9684                 7.3231

                     13                     14                     15
                      A                      A                      A
 Frequencies --    614.3683               677.6141               786.0736
 Red. masses --      4.9041                 3.9486                 1.9455
 Frc consts  --      1.0906                 1.0682                 0.7083
 IR Inten    --     11.4192                26.5023                81.5927

                     16                     17                     18
                      A                      A                      A
 Frequencies --    864.1093               895.8022              1025.6471
 Red. masses --      3.4136                 2.0328                 3.0441
 Frc consts  --      1.5018                 0.9611                 1.8867
 IR Inten    --     27.5881                23.4524                22.6128

                     19                     20                     21
                      A                      A                      A
 Frequencies --   1099.1889              1117.0391              1136.8718
 Red. masses --      4.2663                 1.0866                 1.6738
 Frc consts  --      3.0370                 0.7989                 1.2746
 IR Inten    --     10.3551                52.1783                49.8543

                     22                     23                     24
                      A                      A                      A
 Frequencies --   1196.2966              1210.8251              1244.9693
 Red. masses --      1.8538                 4.4581                 1.5619
 Frc consts  --      1.5632                 3.8509                 1.4263
 IR Inten    --      0.9962               158.8532               236.2048

                     25                     26                     27
                      A                      A                      A
 Frequencies --   1294.1884              1393.9017              1451.9779
 Red. masses --      4.4659                 1.2233                 1.1644
 Frc consts  --      4.4071                 1.4004                 1.4464
 IR Inten    --     32.3248                44.8886                 0.6786

                     28                     29                     30
                      A                      A                      A
 Frequencies --   1484.6533              1503.7160              1536.5433
 Red. masses --      1.0529                 1.0780                 1.1151
 Frc consts  --      1.3673                 1.4361                 1.5512
 IR Inten    --      9.8029                 2.8769                17.3620

                     31                     32                     33
                      A                      A                      A
 Frequencies --   1547.9651              1718.1136              2323.3135
 Red. masses --     11.8624                 8.3649                12.6628
 Frc consts  --     16.7473                14.5485                40.2714
 IR Inten    --    141.1149                55.1241                51.1237

                     34                     35                     36
                      A                      A                      A
 Frequencies --   3013.7865              3102.7877              3115.6129
 Red. masses --      1.0445                 1.0902                 1.0915
 Frc consts  --      5.5896                 6.1839                 6.2424
 IR Inten    --     30.6029                14.5695                25.0954

                     37                     38                     39
                      A                      A                      A
 Frequencies --   3139.4441              3433.4404              3518.5475
 Red. masses --      1.1042                 1.0729                 1.0754
 Frc consts  --      6.4123                 7.4519                 7.8438
 IR Inten    --     10.4709                 2.3618                 7.0584

 - Thermochemistry -
 -------------------
 Temperature   298.150 Kelvin.  Pressure   1.00000 Atm.
 Atom     1 has atomic number  6 and mass  12.00000

 Molecular mass:   126.06539 amu.
 Principal axes and moments of inertia in atomic units:
                           1         2         3
     Eigenvalues --   560.028211986.519352428.77287
           X            0.99970  -0.02361  -0.00693
           Y            0.02368   0.99966   0.01067
           Z            0.00667  -0.01083   0.99992
 This molecule is an asymmetric top.
 Rotational symmetry number  1.
 Warning -- assumption of classical behavior for rotation
           may cause significant error
 Rotational temperatures (Kelvin)      0.15466     0.04360     0.03566
 Rotational constants (GHZ):           3.22259     0.90849     0.74307
 Zero-point vibrational energy     290704.8 (Joules/Mol)
                                   69.48011 (Kcal/Mol)
 Warning -- explicit consideration of  13 degrees of freedom as
           vibrations may cause significant error
 Vibrational temperatures:     82.52   140.71   165.82   176.21   266.81
          (Kelvin)            299.09   361.62   504.34   550.28   584.90
                              638.19   769.21   883.94   974.94  1130.98
                             1243.26  1288.86  1475.68  1581.49  1607.17
                             1635.70  1721.20  1742.11  1791.23  1862.05
                             2005.51  2089.07  2136.09  2163.51  2210.74
                             2227.18  2471.98  3342.73  4336.17  4464.22
                             4482.67  4516.96  4939.95  5062.41

 Zero-point correction=                           0.110724 (Hartree/Particle)
 Thermal correction to Energy=                    0.120259
 Thermal correction to Enthalpy=                  0.121203
 Thermal correction to Gibbs Free Energy=         0.075391
 Sum of electronic and zero-point Energies=           -446.204296
 Sum of electronic and thermal Energies=              -446.194761
 Sum of electronic and thermal Enthalpies=            -446.193816
 Sum of electronic and thermal Free Energies=         -446.239628

                     E (Thermal)             CV                S
                      KCal/Mol        Cal/Mol-Kelvin    Cal/Mol-Kelvin
 Total                   75.463             32.291             96.419
 Electronic               0.000              0.000              0.000
 Translational            0.889              2.981             40.408
 Rotational               0.889              2.981             29.381
 Vibrational             73.686             26.329             26.630
 Vibration     1          0.596              1.975              4.546
 Vibration     2          0.603              1.951              3.498
 Vibration     3          0.608              1.937              3.179
 Vibration     4          0.610              1.930              3.061
 Vibration     5          0.632              1.860              2.273
 Vibration     6          0.641              1.829              2.062
 Vibration     7          0.663              1.761              1.721
 Vibration     8          0.727              1.574              1.164
 Vibration     9          0.752              1.508              1.029
 Vibration    10          0.771              1.456              0.939
 Vibration    11          0.803              1.375              0.815
 Vibration    12          0.890              1.173              0.577
 Vibration    13          0.974              1.001              0.426

                           ! Non-Optimized Parameters !
 Normal termination of Gaussian 16 at Mon May 31 12:44:20 2021.
