 Gaussian 16, Revision A.03,
 Gaussian 16:  ES64L-G16RevA.03 25-Dec-2016

 -----------------------------
 # opt freq b3lyp/6-31g(2df,p)
 -----------------------------

 -------------------
 Title Card Required
 -------------------
 Symbolic Z-matrix:
 Charge =  0 Multiplicity = 1

 SCF Done:  E(RB3LYP) =  -528.531917149     A.U. after   13 cycles
 SCF Done:  E(RB3LYP) =  -528.542690908     A.U. after   13 cycles
 SCF Done:  E(RB3LYP) =  -528.544574884     A.U. after   13 cycles
 SCF Done:  E(RB3LYP) =  -528.545261817     A.U. after   12 cycles
 SCF Done:  E(RB3LYP) =  -528.545735436     A.U. after   11 cycles
 SCF Done:  E(RB3LYP) =  -528.546271243     A.U. after   12 cycles
 SCF Done:  E(RB3LYP) =  -528.547969645     A.U. after   14 cycles
 SCF Done:  E(RB3LYP) =  -528.549824282     A.U. after   13 cycles
 SCF Done:  E(RB3LYP) =  -528.551357943     A.U. after   13 cycles
 SCF Done:  E(RB3LYP) =  -528.555005585     A.U. after   13 cycles
 SCF Done:  E(RB3LYP) =  -528.559670540     A.U. after   11 cycles
 SCF Done:  E(RB3LYP) =  -528.559704927     A.U. after   11 cycles
 SCF Done:  E(RB3LYP) =  -528.559716778     A.U. after   10 cycles
 SCF Done:  E(RB3LYP) =  -528.559721318     A.U. after   10 cycles
 SCF Done:  E(RB3LYP) =  -528.559723708     A.U. after    9 cycles
 SCF Done:  E(RB3LYP) =  -528.559725413     A.U. after    9 cycles
 SCF Done:  E(RB3LYP) =  -528.559725687     A.U. after    8 cycles
 SCF Done:  E(RB3LYP) =  -528.559725785     A.U. after    7 cycles
 SCF Done:  E(RB3LYP) =  -528.559725813     A.U. after    7 cycles
 Optimization completed.
    -- Stationary point found.
 Normal termination of Gaussian 16 at Tue Jun  1 06:33:10 2021.

 ----------------------------------------------------------------------
 #N Geom=AllCheck Guess=TCheck SCRF=Check GenChk RB3LYP/6-31G(2df,p) Fr
 eq
 ----------------------------------------------------------------------

 Structure from the checkpoint file:  "CNNpCpNCCNCNdN.chk"
 -------------------
 Title Card Required
 -------------------
 Charge =  0 Multiplicity = 1

                         Standard orientation:
 ---------------------------------------------------------------------
 Center     Atomic      Atomic             Coordinates (Angstroms)
 Number     Number       Type             X           Y           Z
 ---------------------------------------------------------------------
      1          6           0       -4.147240   -1.605468   -0.127433
      2          7           0       -3.143288   -0.806178    0.582233
      3          7           0       -2.666994    0.298898   -0.285090
      4          6           0       -3.631969    1.390060   -0.172024
      5          7           0       -1.434633    0.770416    0.220151
      6          6           0       -0.297292   -0.028234   -0.222727
      7          6           0        1.007420    0.662062    0.172737
      8          7           0        2.151754   -0.144607   -0.232076
      9          6           0        3.423202    0.440245    0.140560
     10          7           0        4.489145   -0.385964   -0.443752
     11          7           0        5.430522   -0.578460    0.338641
     12          1           0       -4.295432   -2.536152    0.428407
     13          1           0       -3.860367   -1.842523   -1.162269
     14          1           0       -5.106992   -1.080656   -0.146980
     15          1           0       -2.321563   -1.399982    0.664065
     16          1           0       -4.595740    1.071153   -0.576303
     17          1           0       -3.261019    2.228902   -0.762226
     18          1           0       -3.778280    1.707280    0.872720
     19          1           0       -1.478077    0.803212    1.243916
     20          1           0       -0.370660   -0.105425   -1.312946
     21          1           0       -0.273662   -1.058627    0.172477
     22          1           0        1.044796    0.774514    1.265302
     23          1           0        1.014788    1.684006   -0.246338
     24          1           0        2.145035   -0.281448   -1.239112
     25          1           0        3.515684    0.492449    1.232612
     26          1           0        3.582883    1.459138   -0.266634
     27          1           0        6.128340   -1.146569   -0.174116
 ---------------------------------------------------------------------

 SCF Done:  E(RB3LYP) =  -528.559725813     A.U. after    1 cycles

 The electronic state is 1-A.
 Alpha  occ. eigenvalues --  -14.38591 -14.37633 -14.36613 -14.33926 -14.33565
 Alpha  occ. eigenvalues --  -14.32067 -10.23367 -10.21067 -10.20737 -10.19885
 Alpha  occ. eigenvalues --  -10.19227  -1.03325  -1.00199  -0.91446  -0.87515
 Alpha  occ. eigenvalues --   -0.79508  -0.75219  -0.69367  -0.66774  -0.61291
 Alpha  occ. eigenvalues --   -0.60562  -0.59515  -0.52361  -0.50979  -0.48901
 Alpha  occ. eigenvalues --   -0.48322  -0.46299  -0.44846  -0.44219  -0.43145
 Alpha  occ. eigenvalues --   -0.41653  -0.40268  -0.39761  -0.39068  -0.37868
 Alpha  occ. eigenvalues --   -0.36779  -0.36193  -0.35257  -0.34744  -0.29168
 Alpha  occ. eigenvalues --   -0.23956  -0.23610  -0.22677  -0.19887
 Alpha virt. eigenvalues --   -0.04396   0.07773   0.08911   0.10037   0.10516
 Alpha virt. eigenvalues --    0.11073   0.12012   0.13019   0.14229   0.14956
 Alpha virt. eigenvalues --    0.16007   0.16601   0.17146   0.17912   0.18224

 Mulliken charges:
               1
     1  C   -0.300696
     2  N   -0.277739
     3  N   -0.078508
     4  C   -0.269891
     5  N   -0.264085
     6  C   -0.133444
     7  C   -0.141144
     8  N   -0.300080
     9  C   -0.041960
    10  N   -0.124712
    11  N   -0.270176
    12  H    0.119689
    13  H    0.109227
    14  H    0.125252
    15  H    0.224989
    16  H    0.116235
    17  H    0.125934
    18  H    0.098019
    19  H    0.202615
    20  H    0.113110
    21  H    0.090185
    22  H    0.103019
    23  H    0.093991
    24  H    0.223062
    25  H    0.114976
    26  H    0.096442
    27  H    0.245690
 Sum of Mulliken charges =  -0.00000

 Dipole moment (field-independent basis, Debye):
    X=             -0.1425    Y=             -0.1775    Z=             -0.4681  Tot=              0.5205
 Quadrupole moment (field-independent basis, Debye-Ang):
   XX=            -66.1729   YY=            -66.5068   ZZ=            -69.5959
   XY=              1.5320   XZ=             -2.5091   YZ=              0.4583

  Exact polarizability: 141.077  -3.950  93.819   3.763   1.619  81.187
 Approx polarizability: 159.254  -6.100 135.419   8.261   0.772 130.040

                      1                      2                      3
                      A                      A                      A
 Frequencies --     31.5125                40.9211                42.7927
 Red. masses --      4.2086                 2.6851                 2.3550
 Frc consts  --      0.0025                 0.0026                 0.0025
 IR Inten    --      1.0181                 1.6312                 0.8701

                      4                      5                      6
                      A                      A                      A
 Frequencies --     68.3346                85.4945               117.8132
 Red. masses --      3.7368                 3.4726                 2.2761
 Frc consts  --      0.0103                 0.0150                 0.0186
 IR Inten    --      1.2282                 1.2772                 1.2992

                      7                      8                      9
                      A                      A                      A
 Frequencies --    129.9060               168.8474               201.2348
 Red. masses --      3.2540                 2.4680                 2.3529
 Frc consts  --      0.0324                 0.0415                 0.0561
 IR Inten    --      0.7579                 1.5358                 2.0455

                     10                     11                     12
                      A                      A                      A
 Frequencies --    226.8678               244.7922               274.4420
 Red. masses --      1.1389                 4.8688                 1.4629
 Frc consts  --      0.0345                 0.1719                 0.0649
 IR Inten    --      1.2635                 0.3424                 1.0981

                     13                     14                     15
                      A                      A                      A
 Frequencies --    306.6723               365.2811               438.0386
 Red. masses --      2.6838                 2.8356                 3.0998
 Frc consts  --      0.1487                 0.2229                 0.3504
 IR Inten    --      1.6124                10.7633                 6.2876

                     16                     17                     18
                      A                      A                      A
 Frequencies --    459.9824               520.9084               555.8250
 Red. masses --      3.3805                 3.2488                 3.3495
 Frc consts  --      0.4214                 0.5194                 0.6097
 IR Inten    --      2.2010                 5.7095                 5.0172

                     19                     20                     21
                      A                      A                      A
 Frequencies --    581.3886               766.8526               793.7969
 Red. masses --      3.2237                 2.6244                 1.2446
 Frc consts  --      0.6420                 0.9093                 0.4621
 IR Inten    --     13.7956                32.8967                42.9988

                     22                     23                     24
                      A                      A                      A
 Frequencies --    818.4628               850.6939               860.5425
 Red. masses --      1.1803                 1.5509                 1.6308
 Frc consts  --      0.4659                 0.6613                 0.7115
 IR Inten    --      1.5982                 1.6651                85.3339

                     25                     26                     27
                      A                      A                      A
 Frequencies --    904.2402               974.6762               998.2279
 Red. masses --      1.3376                 2.5371                 2.0988
 Frc consts  --      0.6444                 1.4201                 1.2322
 IR Inten    --     51.6864                11.2698                10.1130

                     28                     29                     30
                      A                      A                      A
 Frequencies --   1053.6084              1056.8276              1076.1649
 Red. masses --      2.3096                 2.3747                 3.1054
 Frc consts  --      1.5106                 1.5627                 2.1190
 IR Inten    --      5.9887                 5.2396                35.0639

                     31                     32                     33
                      A                      A                      A
 Frequencies --   1090.5210              1113.6176              1133.9662
 Red. masses --      1.7755                 2.5862                 2.0684
 Frc consts  --      1.2441                 1.8896                 1.5670
 IR Inten    --     14.8076                26.6061                 4.0455

                     34                     35                     36
                      A                      A                      A
 Frequencies --   1151.2550              1159.7575              1167.9881
 Red. masses --      1.7580                 1.7294                 2.2585
 Frc consts  --      1.3728                 1.3705                 1.8153
 IR Inten    --      5.5570                11.6393                55.5140

                     37                     38                     39
                      A                      A                      A
 Frequencies --   1184.8506              1208.9346              1241.7617
 Red. masses --      1.7712                 1.4816                 1.7246
 Frc consts  --      1.4650                 1.2758                 1.5668
 IR Inten    --     18.4986                 9.4683                17.4991

                     40                     41                     42
                      A                      A                      A
 Frequencies --   1265.9854              1285.0093              1306.1031
 Red. masses --      1.5150                 1.6592                 1.1446
 Frc consts  --      1.4306                 1.6143                 1.1505
 IR Inten    --      6.8664                 2.5049                 8.7292

                     43                     44                     45
                      A                      A                      A
 Frequencies --   1323.7442              1376.5893              1425.5921
 Red. masses --      1.2389                 1.3283                 1.4899
 Frc consts  --      1.2791                 1.4830                 1.7840
 IR Inten    --     35.1905                 9.4756                 2.4747

                     46                     47                     48
                      A                      A                      A
 Frequencies --   1430.7408              1443.5887              1470.3597
 Red. masses --      1.1819                 1.1658                 1.0962
 Frc consts  --      1.4254                 1.4314                 1.3963
 IR Inten    --      0.1406                 3.2993                 4.8242

                     49                     50                     51
                      A                      A                      A
 Frequencies --   1482.3788              1485.8653              1489.7156
 Red. masses --      1.1390                 1.1866                 1.0748
 Frc consts  --      1.4747                 1.5435                 1.4054
 IR Inten    --      5.0706                34.2090                 2.7120

                     52                     53                     54
                      A                      A                      A
 Frequencies --   1493.6257              1499.2496              1503.2913
 Red. masses --      1.2029                 1.1536                 1.0878
 Frc consts  --      1.5811                 1.5278                 1.4484
 IR Inten    --     48.4971                 3.8105                 1.3107

                     55                     56                     57
                      A                      A                      A
 Frequencies --   1511.2489              1518.4596              1523.9388
 Red. masses --      1.0949                 1.0971                 1.1423
 Frc consts  --      1.4733                 1.4904                 1.5630
 IR Inten    --      1.0560                 8.9282                10.7199

                     58                     59                     60
                      A                      A                      A
 Frequencies --   1525.3998              1667.1949              2899.5587
 Red. masses --      1.0872                10.3559                 1.0691
 Frc consts  --      1.4906                16.9594                 5.2957
 IR Inten    --      9.2277                 3.0346                67.0383

                     61                     62                     63
                      A                      A                      A
 Frequencies --   2941.4806              2954.3138              2982.4830
 Red. masses --      1.0706                 1.0702                 1.0526
 Frc consts  --      5.4579                 5.5035                 5.5165
 IR Inten    --      1.0591               112.3278                64.4741

                     64                     65                     66
                      A                      A                      A
 Frequencies --   2996.2616              3022.1496              3043.3805
 Red. masses --      1.0458                 1.0881                 1.0890
 Frc consts  --      5.5315                 5.8554                 5.9429
 IR Inten    --     54.7555                17.5402                25.6258

                     67                     68                     69
                      A                      A                      A
 Frequencies --   3069.8085              3078.9435              3095.5040
 Red. masses --      1.0899                 1.0885                 1.0814
 Frc consts  --      6.0513                 6.0796                 6.1054
 IR Inten    --     28.7655                33.6625                27.3422

                     70                     71                     72
                      A                      A                      A
 Frequencies --   3109.1345              3144.5623              3242.1976
 Red. masses --      1.1009                 1.1018                 1.0738
 Frc consts  --      6.2703                 6.4190                 6.6506
 IR Inten    --     29.5165                17.9387                33.1581

                     73                     74                     75
                      A                      A                      A
 Frequencies --   3362.0666              3491.7803              3506.0232
 Red. masses --      1.0719                 1.0740                 1.0730
 Frc consts  --      7.1390                 7.7154                 7.7709
 IR Inten    --     19.2110                 0.6383                 0.7279

 - Thermochemistry -
 -------------------
 Temperature   298.150 Kelvin.  Pressure   1.00000 Atm.
 Atom     1 has atomic number  6 and mass  12.00000

 Molecular mass:   160.14364 amu.
 Principal axes and moments of inertia in atomic units:
                           1         2         3
     Eigenvalues --   513.844176263.362386596.75102
           X            0.99998   0.00556   0.00186
           Y           -0.00559   0.99981   0.01872
           Z           -0.00176  -0.01873   0.99982
 This molecule is an asymmetric top.
 Rotational symmetry number  1.
 Warning -- assumption of classical behavior for rotation
           may cause significant error
 Rotational temperatures (Kelvin)      0.16856     0.01383     0.01313
 Rotational constants (GHZ):           3.51223     0.28814     0.27358
 Zero-point vibrational energy     624663.2 (Joules/Mol)
                                  149.29809 (Kcal/Mol)
 Warning -- explicit consideration of  19 degrees of freedom as
           vibrations may cause significant error
 Vibrational temperatures:     45.34    58.88    61.57    98.32   123.01
          (Kelvin)            169.51   186.91   242.93   289.53   326.41
                              352.20   394.86   441.23   525.56   630.24
                              661.81   749.47   799.71   836.49  1103.33
                             1142.10  1177.59  1223.96  1238.13  1301.00
                             1402.34  1436.23  1515.91  1520.54  1548.36
                             1569.02  1602.25  1631.52  1656.40  1668.63
                             1680.47  1704.74  1739.39  1786.62  1821.47
                             1848.84  1879.19  1904.57  1980.60  2051.11
                             2058.52  2077.00  2115.52  2132.81  2137.83
                             2143.37  2148.99  2157.09  2162.90  2174.35
                             2184.72  2192.61  2194.71  2398.72  4171.82
                             4232.13  4250.60  4291.13  4310.95  4348.20
                             4378.75  4416.77  4429.91  4453.74  4473.35
                             4524.32  4664.80  4837.26  5023.89  5044.39

 Zero-point correction=                           0.237922 (Hartree/Particle)
 Thermal correction to Energy=                    0.251657
 Thermal correction to Enthalpy=                  0.252601
 Thermal correction to Gibbs Free Energy=         0.195365
 Sum of electronic and zero-point Energies=           -528.321804
 Sum of electronic and thermal Energies=              -528.308069
 Sum of electronic and thermal Enthalpies=            -528.307125
 Sum of electronic and thermal Free Energies=         -528.364361

                     E (Thermal)             CV                S
                      KCal/Mol        Cal/Mol-Kelvin    Cal/Mol-Kelvin
 Total                  157.917             47.343            120.463
 Electronic               0.000              0.000              0.000
 Translational            0.889              2.981             41.122
 Rotational               0.889              2.981             31.429
 Vibrational            156.140             41.381             47.912
 Vibration     1          0.594              1.983              5.732
 Vibration     2          0.594              1.981              5.214
 Vibration     3          0.595              1.980              5.125
 Vibration     4          0.598              1.969              4.201
 Vibration     5          0.601              1.959              3.761
 Vibration     6          0.608              1.935              3.136
 Vibration     7          0.612              1.923              2.947
 Vibration     8          0.625              1.881              2.448
 Vibration     9          0.638              1.838              2.122
 Vibration    10          0.651              1.800              1.904
 Vibration    11          0.660              1.771              1.768
 Vibration    12          0.677              1.721              1.568
 Vibration    13          0.697              1.661              1.380
 Vibration    14          0.739              1.544              1.100
 Vibration    15          0.798              1.387              0.833
 Vibration    16          0.818              1.339              0.766
 Vibration    17          0.876              1.204              0.608
 Vibration    18          0.911              1.127              0.532
 Vibration    19          0.938              1.072              0.483

                           ! Non-Optimized Parameters !
 Normal termination of Gaussian 16 at Tue Jun  1 07:19:03 2021.
