 Gaussian 16, Revision A.03,
 Gaussian 16:  ES64L-G16RevA.03 25-Dec-2016

 -----------------------------
 # opt freq b3lyp/6-31g(2df,p)
 -----------------------------

 -------------------
 Title Card Required
 -------------------
 Symbolic Z-matrix:
 Charge =  0 Multiplicity = 1

 SCF Done:  E(RB3LYP) =  -433.873595903     A.U. after   13 cycles
 SCF Done:  E(RB3LYP) =  -433.883173183     A.U. after   13 cycles
 SCF Done:  E(RB3LYP) =  -433.884880709     A.U. after   13 cycles
 SCF Done:  E(RB3LYP) =  -433.885462512     A.U. after   12 cycles
 SCF Done:  E(RB3LYP) =  -433.885706187     A.U. after   12 cycles
 SCF Done:  E(RB3LYP) =  -433.887227651     A.U. after   15 cycles
 SCF Done:  E(RB3LYP) =  -433.876620590     A.U. after   14 cycles
 SCF Done:  E(RB3LYP) =  -433.893247409     A.U. after   14 cycles
 SCF Done:  E(RB3LYP) =  -433.897339430     A.U. after   14 cycles
 SCF Done:  E(RB3LYP) =  -433.898529797     A.U. after   12 cycles
 SCF Done:  E(RB3LYP) =  -433.900502138     A.U. after   12 cycles
 SCF Done:  E(RB3LYP) =  -433.900548808     A.U. after   10 cycles
 SCF Done:  E(RB3LYP) =  -433.900562174     A.U. after   11 cycles
 SCF Done:  E(RB3LYP) =  -433.900565717     A.U. after    9 cycles
 SCF Done:  E(RB3LYP) =  -433.900568495     A.U. after    9 cycles
 SCF Done:  E(RB3LYP) =  -433.900569895     A.U. after    8 cycles
 SCF Done:  E(RB3LYP) =  -433.900570669     A.U. after    9 cycles
 SCF Done:  E(RB3LYP) =  -433.900570970     A.U. after    9 cycles
 SCF Done:  E(RB3LYP) =  -433.900571033     A.U. after    7 cycles
 Optimization completed.
    -- Stationary point found.
 Normal termination of Gaussian 16 at Tue Jun  1 20:56:38 2021.

 ----------------------------------------------------------------------
 #N Geom=AllCheck Guess=TCheck SCRF=Check GenChk RB3LYP/6-31G(2df,p) Fr
 eq
 ----------------------------------------------------------------------

 Structure from the checkpoint file:  "CNNpCpNCCNdN.chk"
 -------------------
 Title Card Required
 -------------------
 Charge =  0 Multiplicity = 1

                         Standard orientation:
 ---------------------------------------------------------------------
 Center     Atomic      Atomic             Coordinates (Angstroms)
 Number     Number       Type             X           Y           Z
 ---------------------------------------------------------------------
      1          6           0        3.072698   -1.491555    0.179893
      2          7           0        2.019510   -0.770680   -0.542836
      3          7           0        1.530929    0.368177    0.271671
      4          6           0        2.460273    1.478639    0.074521
      5          7           0        0.274513    0.774999   -0.232309
      6          6           0       -0.827721   -0.013444    0.305411
      7          6           0       -2.155405    0.589031   -0.163689
      8          7           0       -3.260458   -0.117167    0.492873
      9          7           0       -4.020216   -0.673001   -0.315752
     10          1           0        3.233999   -2.449891   -0.322655
     11          1           0        2.827244   -1.672421    1.236411
     12          1           0        4.014139   -0.936339    0.133846
     13          1           0        1.217866   -1.396477   -0.562228
     14          1           0        3.440453    1.212533    0.477350
     15          1           0        2.075166    2.339579    0.622135
     16          1           0        2.576671    1.737222   -0.989799
     17          1           0        0.289555    0.731991   -1.256353
     18          1           0       -0.763902    0.028599    1.395718
     19          1           0       -0.807628   -1.080832    0.020214
     20          1           0       -2.261178    0.542795   -1.255397
     21          1           0       -2.198326    1.633950    0.163054
     22          1           0       -4.753075   -1.143019    0.245361
 ---------------------------------------------------------------------

 SCF Done:  E(RB3LYP) =  -433.900571033     A.U. after    1 cycles

 The electronic state is 1-A.
 Alpha  occ. eigenvalues --  -14.38484 -14.37459 -14.36857 -14.34306 -14.33821
 Alpha  occ. eigenvalues --  -10.21474 -10.21042 -10.20062 -10.19396  -1.02983
 Alpha  occ. eigenvalues --   -1.00472  -0.88063  -0.80699  -0.76047  -0.67987
 Alpha  occ. eigenvalues --   -0.65550  -0.60457  -0.58805  -0.52521  -0.49764
 Alpha  occ. eigenvalues --   -0.49422  -0.46363  -0.44170  -0.43815  -0.41559
 Alpha  occ. eigenvalues --   -0.41255  -0.40500  -0.39429  -0.37664  -0.36726
 Alpha  occ. eigenvalues --   -0.34946  -0.34368  -0.29412  -0.24130  -0.23142
 Alpha  occ. eigenvalues --   -0.20113
 Alpha virt. eigenvalues --   -0.04260   0.07471   0.10109   0.10471   0.10949
 Alpha virt. eigenvalues --    0.12947   0.13142   0.14291   0.14907   0.16221
 Alpha virt. eigenvalues --    0.17286   0.17761   0.18198   0.19488   0.20638

 Mulliken charges:
               1
     1  C   -0.301673
     2  N   -0.277299
     3  N   -0.079882
     4  C   -0.270192
     5  N   -0.266485
     6  C   -0.113922
     7  C   -0.124919
     8  N   -0.108609
     9  N   -0.278583
    10  H    0.120341
    11  H    0.110595
    12  H    0.126340
    13  H    0.224516
    14  H    0.117194
    15  H    0.127360
    16  H    0.099127
    17  H    0.204621
    18  H    0.131326
    19  H    0.084418
    20  H    0.102201
    21  H    0.129780
    22  H    0.243747
 Sum of Mulliken charges =  -0.00000

 Dipole moment (field-independent basis, Debye):
    X=              0.3234    Y=             -0.7674    Z=              0.0297  Tot=              0.8333
 Quadrupole moment (field-independent basis, Debye-Ang):
   XX=            -53.1879   YY=            -52.8101   ZZ=            -59.0966
   XY=              0.5497   XZ=             -0.5015   YZ=             -1.0255

  Exact polarizability: 110.468   5.832  79.725   2.697  -0.431  66.241
 Approx polarizability: 130.547   9.753 114.707   6.641   3.002 105.616

                      1                      2                      3
                      A                      A                      A
 Frequencies --     39.4018                49.9777                59.5286
 Red. masses --      3.0907                 2.7496                 3.0340
 Frc consts  --      0.0028                 0.0040                 0.0063
 IR Inten    --      2.1149                 0.7821                 0.2488

                      4                      5                      6
                      A                      A                      A
 Frequencies --     83.1789               135.9519               181.0717
 Red. masses --      2.9238                 3.1031                 2.3654
 Frc consts  --      0.0119                 0.0338                 0.0457
 IR Inten    --      0.7988                 0.3818                 1.6398

                      7                      8                      9
                      A                      A                      A
 Frequencies --    225.7855               258.6763               291.8029
 Red. masses --      1.1428                 1.3842                 3.4741
 Frc consts  --      0.0343                 0.0546                 0.1743
 IR Inten    --      1.1173                 0.2831                 2.1857

                     10                     11                     12
                      A                      A                      A
 Frequencies --    315.2092               354.4986               450.2048
 Red. masses --      2.8942                 2.8194                 2.7973
 Frc consts  --      0.1694                 0.2088                 0.3340
 IR Inten    --      1.7613                 6.3183                 6.0474

                     13                     14                     15
                      A                      A                      A
 Frequencies --    508.8238               535.9286               579.4191
 Red. masses --      3.2762                 3.0356                 2.8172
 Frc consts  --      0.4998                 0.5137                 0.5572
 IR Inten    --     16.0107                 1.4848                11.6316

                     16                     17                     18
                      A                      A                      A
 Frequencies --    764.2397               819.4411               853.4823
 Red. masses --      2.7034                 1.1457                 2.2530
 Frc consts  --      0.9303                 0.4533                 0.9670
 IR Inten    --     25.2161                14.1138                48.2487

                     19                     20                     21
                      A                      A                      A
 Frequencies --    895.8330               903.9437               975.0535
 Red. masses --      1.4298                 1.3060                 2.2725
 Frc consts  --      0.6760                 0.6288                 1.2730
 IR Inten    --     37.3033                39.3977                21.5369

                     22                     23                     24
                      A                      A                      A
 Frequencies --    996.1658              1055.2058              1077.3335
 Red. masses --      2.3095                 2.4640                 3.6872
 Frc consts  --      1.3503                 1.6165                 2.5214
 IR Inten    --      7.6777                 6.6711                20.4173

                     25                     26                     27
                      A                      A                      A
 Frequencies --   1100.2265              1129.9117              1149.0356
 Red. masses --      2.3325                 1.9383                 1.8827
 Frc consts  --      1.6635                 1.4580                 1.4645
 IR Inten    --     21.2027                 6.1659                 2.2320

                     28                     29                     30
                      A                      A                      A
 Frequencies --   1157.6079              1179.4060              1196.7964
 Red. masses --      1.5948                 1.6805                 1.5735
 Frc consts  --      1.2592                 1.3773                 1.3279
 IR Inten    --      6.0232                 6.1233                 7.9369

                     31                     32                     33
                      A                      A                      A
 Frequencies --   1240.6599              1273.6189              1287.0836
 Red. masses --      1.4826                 1.6588                 1.3828
 Frc consts  --      1.3445                 1.5853                 1.3497
 IR Inten    --     14.5897                 3.2183                 0.5088

                     34                     35                     36
                      A                      A                      A
 Frequencies --   1329.7462              1394.7884              1430.8603
 Red. masses --      1.2353                 1.4397                 1.1809
 Frc consts  --      1.2869                 1.6502                 1.4244
 IR Inten    --     16.2026                 7.5231                 0.1563

                     37                     38                     39
                      A                      A                      A
 Frequencies --   1443.8163              1470.3203              1477.6991
 Red. masses --      1.1651                 1.0921                 1.0926
 Frc consts  --      1.4310                 1.3910                 1.4057
 IR Inten    --      2.6064                 6.0747                 2.6803

                     40                     41                     42
                      A                      A                      A
 Frequencies --   1483.5258              1489.4562              1498.1848
 Red. masses --      1.0944                 1.0583                 1.2830
 Frc consts  --      1.4192                 1.3833                 1.6968
 IR Inten    --      7.6356                 3.2071                25.9722

                     43                     44                     45
                      A                      A                      A
 Frequencies --   1502.9399              1513.6462              1522.4072
 Red. masses --      1.0844                 1.1106                 1.1246
 Frc consts  --      1.4432                 1.4992                 1.5358
 IR Inten    --      1.0635                 1.4759                 8.0504

                     46                     47                     48
                      A                      A                      A
 Frequencies --   1523.3621              1655.4114              2934.3392
 Red. masses --      1.0917                 9.8977                 1.0722
 Frc consts  --      1.4926                15.9807                 5.4393
 IR Inten    --     16.4716                 4.7045                53.2317

                     49                     50                     51
                      A                      A                      A
 Frequencies --   2984.0296              2997.3666              3016.9698
 Red. masses --      1.0524                 1.0456                 1.0584
 Frc consts  --      5.5211                 5.5348                 5.6758
 IR Inten    --     62.2658                53.3192                20.4798

                     52                     53                     54
                      A                      A                      A
 Frequencies --   3080.2798              3081.4685              3096.8298
 Red. masses --      1.0887                 1.0985                 1.0819
 Frc consts  --      6.0861                 6.1458                 6.1134
 IR Inten    --     32.5767                 3.9726                24.7378

                     55                     56                     57
                      A                      A                      A
 Frequencies --   3100.6472              3110.1673              3145.7980
 Red. masses --      1.0919                 1.1009                 1.1018
 Frc consts  --      6.1850                 6.2742                 6.4241
 IR Inten    --     21.5740                29.2815                16.9347

                     58                     59                     60
                      A                      A                      A
 Frequencies --   3241.4711              3365.2310              3490.3746
 Red. masses --      1.0737                 1.0720                 1.0740
 Frc consts  --      6.6468                 7.1527                 7.7093
 IR Inten    --     30.8284                17.7475                 0.3980

 - Thermochemistry -
 -------------------
 Temperature   298.150 Kelvin.  Pressure   1.00000 Atm.
 Atom     1 has atomic number  6 and mass  12.00000

 Molecular mass:   131.11710 amu.
 Principal axes and moments of inertia in atomic units:
                           1         2         3
     Eigenvalues --   469.399132965.012563281.71314
           X            0.99999  -0.00414   0.00330
           Y            0.00421   0.99976  -0.02138
           Z           -0.00321   0.02139   0.99977
 This molecule is an asymmetric top.
 Rotational symmetry number  1.
 Warning -- assumption of classical behavior for rotation
           may cause significant error
 Rotational temperatures (Kelvin)      0.18452     0.02921     0.02639
 Rotational constants (GHZ):           3.84479     0.60868     0.54994
 Zero-point vibrational energy     505456.0 (Joules/Mol)
                                  120.80688 (Kcal/Mol)
 Warning -- explicit consideration of  15 degrees of freedom as
           vibrations may cause significant error
 Vibrational temperatures:     56.69    71.91    85.65   119.68   195.60
          (Kelvin)            260.52   324.86   372.18   419.84   453.52
                              510.04   647.74   732.08   771.08   833.65
                             1099.57  1178.99  1227.97  1288.90  1300.57
                             1402.88  1433.26  1518.21  1550.04  1582.98
                             1625.69  1653.21  1665.54  1696.90  1721.92
                             1785.03  1832.45  1851.83  1913.21  2006.79
                             2058.69  2077.33  2115.46  2126.08  2134.46
                             2143.00  2155.55  2162.40  2177.80  2190.40
                             2191.78  2381.77  4221.86  4293.35  4312.54
                             4340.75  4431.84  4433.55  4455.65  4461.14
                             4474.84  4526.10  4663.75  4841.82  5021.87

 Zero-point correction=                           0.192518 (Hartree/Particle)
 Thermal correction to Energy=                    0.203629
 Thermal correction to Enthalpy=                  0.204573
 Thermal correction to Gibbs Free Energy=         0.154292
 Sum of electronic and zero-point Energies=           -433.708053
 Sum of electronic and thermal Energies=              -433.696943
 Sum of electronic and thermal Enthalpies=            -433.695998
 Sum of electronic and thermal Free Energies=         -433.746279

                     E (Thermal)             CV                S
                      KCal/Mol        Cal/Mol-Kelvin    Cal/Mol-Kelvin
 Total                  127.779             38.314            105.825
 Electronic               0.000              0.000              0.000
 Translational            0.889              2.981             40.526
 Rotational               0.889              2.981             29.903
 Vibrational            126.001             32.353             35.396
 Vibration     1          0.594              1.981              5.289
 Vibration     2          0.595              1.978              4.818
 Vibration     3          0.597              1.974              4.473
 Vibration     4          0.600              1.961              3.814
 Vibration     5          0.614              1.917              2.860
 Vibration     6          0.630              1.865              2.317
 Vibration     7          0.650              1.802              1.912
 Vibration     8          0.667              1.748              1.671
 Vibration     9          0.687              1.689              1.463
 Vibration    10          0.703              1.645              1.335
 Vibration    11          0.730              1.566              1.146
 Vibration    12          0.809              1.360              0.795
 Vibration    13          0.864              1.230              0.636
 Vibration    14          0.891              1.171              0.574
 Vibration    15          0.936              1.076              0.486

                           ! Non-Optimized Parameters !
 Normal termination of Gaussian 16 at Tue Jun  1 21:29:35 2021.
