 Gaussian 16, Revision A.03,
 Gaussian 16:  ES64L-G16RevA.03 25-Dec-2016

 -----------------------------
 # opt freq b3lyp/6-31g(2df,p)
 -----------------------------

 -------------------
 Title Card Required
 -------------------
 Symbolic Z-matrix:
 Charge =  0 Multiplicity = 1

 SCF Done:  E(RB3LYP) =  -516.407549621     A.U. after   13 cycles
 SCF Done:  E(RB3LYP) =  -516.415979318     A.U. after   12 cycles
 SCF Done:  E(RB3LYP) =  -516.417151557     A.U. after   12 cycles
 SCF Done:  E(RB3LYP) =  -516.417380750     A.U. after   12 cycles
 SCF Done:  E(RB3LYP) =  -516.417377384     A.U. after   13 cycles
 SCF Done:  E(RB3LYP) =  -516.418508658     A.U. after   13 cycles
 SCF Done:  E(RB3LYP) =  -516.420071849     A.U. after   13 cycles
 SCF Done:  E(RB3LYP) =  -516.422257164     A.U. after   13 cycles
 SCF Done:  E(RB3LYP) =  -516.424168357     A.U. after   13 cycles
 SCF Done:  E(RB3LYP) =  -516.422798989     A.U. after   13 cycles
 SCF Done:  E(RB3LYP) =  -516.426184585     A.U. after   13 cycles
 SCF Done:  E(RB3LYP) =  -516.431072696     A.U. after   13 cycles
 SCF Done:  E(RB3LYP) =  -516.430981314     A.U. after   12 cycles
 SCF Done:  E(RB3LYP) =  -516.430664091     A.U. after   13 cycles
 SCF Done:  E(RB3LYP) =  -516.431260835     A.U. after   11 cycles
 SCF Done:  E(RB3LYP) =  -516.431298795     A.U. after   10 cycles
 SCF Done:  E(RB3LYP) =  -516.431302358     A.U. after    9 cycles
 SCF Done:  E(RB3LYP) =  -516.431303171     A.U. after    8 cycles
 SCF Done:  E(RB3LYP) =  -516.431303339     A.U. after    7 cycles
 Optimization completed.
    -- Stationary point found.
 Normal termination of Gaussian 16 at Tue Jun  1 07:21:59 2021.

 ----------------------------------------------------------------------
 #N Geom=AllCheck Guess=TCheck SCRF=Check GenChk RB3LYP/6-31G(2df,p) Fr
 eq
 ----------------------------------------------------------------------

 Structure from the checkpoint file:  "CNNpCpCNCCCCdO.chk"
 -------------------
 Title Card Required
 -------------------
 Charge =  0 Multiplicity = 1

                         Standard orientation:
 ---------------------------------------------------------------------
 Center     Atomic      Atomic             Coordinates (Angstroms)
 Number     Number       Type             X           Y           Z
 ---------------------------------------------------------------------
      1          6           0       -3.338242   -1.925072   -0.173635
      2          7           0       -3.574185   -0.488643   -0.209921
      3          7           0       -2.364494    0.253531   -0.315968
      4          6           0       -2.603337    1.470390   -1.079828
      5          6           0       -1.746587    0.521622    0.981669
      6          7           0       -0.374004    0.962610    0.811119
      7          6           0        0.564211   -0.109880    0.496339
      8          6           0        1.951144    0.450125    0.182052
      9          6           0        2.966578   -0.652161   -0.164199
     10          6           0        4.298330   -0.073481   -0.582235
     11          8           0        5.355144   -0.316722   -0.059603
     12          1           0       -4.302260   -2.429713   -0.052644
     13          1           0       -2.670196   -2.266407    0.634396
     14          1           0       -2.900522   -2.236641   -1.125936
     15          1           0       -4.103102   -0.193470    0.613687
     16          1           0       -2.967474    1.204412   -2.073738
     17          1           0       -1.663354    2.019460   -1.163317
     18          1           0       -3.351184    2.128995   -0.600507
     19          1           0       -1.829995   -0.407063    1.571424
     20          1           0       -2.288127    1.315618    1.532063
     21          1           0       -0.071883    1.467729    1.636756
     22          1           0        0.169103   -0.637533   -0.378184
     23          1           0        0.641376   -0.857710    1.308664
     24          1           0        2.321361    1.022868    1.043136
     25          1           0        1.863973    1.159944   -0.649026
     26          1           0        2.581244   -1.239780   -1.010665
     27          1           0        3.130088   -1.333350    0.676042
     28          1           0        4.236000    0.634677   -1.442908
 ---------------------------------------------------------------------

 SCF Done:  E(RB3LYP) =  -516.431303339     A.U. after    1 cycles

 The electronic state is 1-A.
 Alpha  occ. eigenvalues --  -19.13802 -14.34093 -14.33705 -14.32070 -10.27019
 Alpha  occ. eigenvalues --  -10.23203 -10.20945 -10.19894 -10.19614 -10.19587
 Alpha  occ. eigenvalues --  -10.18857  -1.04476  -0.97756  -0.90781  -0.81385
 Alpha  occ. eigenvalues --   -0.79422  -0.71510  -0.67679  -0.65708  -0.61227
 Alpha  occ. eigenvalues --   -0.58774  -0.57361  -0.51144  -0.49723  -0.48788
 Alpha  occ. eigenvalues --   -0.47305  -0.45541  -0.44992  -0.43293  -0.42632
 Alpha  occ. eigenvalues --   -0.42115  -0.40304  -0.40032  -0.38340  -0.38200
 Alpha  occ. eigenvalues --   -0.36680  -0.36024  -0.35565  -0.35073  -0.34206
 Alpha  occ. eigenvalues --   -0.24958  -0.24041  -0.22690  -0.22145
 Alpha virt. eigenvalues --   -0.01961   0.07764   0.08483   0.09741   0.10594
 Alpha virt. eigenvalues --    0.11610   0.13340   0.13721   0.14590   0.15154
 Alpha virt. eigenvalues --    0.15708   0.16134   0.16700   0.17618   0.17780

 Mulliken charges:
               1
     1  C   -0.290001
     2  N   -0.257365
     3  N   -0.050309
     4  C   -0.294068
     5  C   -0.113369
     6  N   -0.290556
     7  C   -0.123968
     8  C   -0.207435
     9  C   -0.271205
    10  C    0.159129
    11  O   -0.237377
    12  H    0.114745
    13  H    0.094865
    14  H    0.128686
    15  H    0.203576
    16  H    0.120862
    17  H    0.128002
    18  H    0.082841
    19  H    0.083331
    20  H    0.072058
    21  H    0.216653
    22  H    0.122988
    23  H    0.077625
    24  H    0.104125
    25  H    0.114597
    26  H    0.120112
    27  H    0.120943
    28  H    0.070514
 Sum of Mulliken charges =  -0.00000

 Dipole moment (field-independent basis, Debye):
    X=             -2.5436    Y=              0.1502    Z=              1.1302  Tot=              2.7874
 Quadrupole moment (field-independent basis, Debye-Ang):
   XX=            -91.3236   YY=            -67.4407   ZZ=            -65.3420
   XY=              2.7438   XZ=             -7.1871   YZ=              1.3484

  Exact polarizability: 128.842   1.935  97.468   0.727  -2.757  89.675
 Approx polarizability: 157.537   0.343 138.865   5.029  -3.022 135.991

                      1                      2                      3
                      A                      A                      A
 Frequencies --     33.6609                39.7254                51.7190
 Red. masses --      3.8951                 4.3253                 2.7310
 Frc consts  --      0.0026                 0.0040                 0.0043
 IR Inten    --      2.5410                 2.0010                 3.5920

                      4                      5                      6
                      A                      A                      A
 Frequencies --     69.2302               102.8034               128.4992
 Red. masses --      3.5817                 2.5146                 2.1052
 Frc consts  --      0.0101                 0.0157                 0.0205
 IR Inten    --      2.2639                 0.7283                 1.7455

                      7                      8                      9
                      A                      A                      A
 Frequencies --    143.0066               154.8509               209.0231
 Red. masses --      2.2336                 2.6016                 1.2381
 Frc consts  --      0.0269                 0.0368                 0.0319
 IR Inten    --      1.7142                 0.1890                 0.5586

                     10                     11                     12
                      A                      A                      A
 Frequencies --    234.7929               256.9499               294.3026
 Red. masses --      1.1250                 2.8610                 2.4003
 Frc consts  --      0.0365                 0.1113                 0.1225
 IR Inten    --      0.1438                 2.3778                12.0054

                     13                     14                     15
                      A                      A                      A
 Frequencies --    320.1636               343.9919               397.1942
 Red. masses --      2.9238                 2.6220                 2.8131
 Frc consts  --      0.1766                 0.1828                 0.2615
 IR Inten    --      1.1823                 5.0190                 1.6676

                     16                     17                     18
                      A                      A                      A
 Frequencies --    438.3410               481.8834               516.7288
 Red. masses --      2.2193                 2.9142                 2.6900
 Frc consts  --      0.2512                 0.3987                 0.4232
 IR Inten    --      0.7278                 3.6250                10.2531

                     19                     20                     21
                      A                      A                      A
 Frequencies --    580.5844               720.0769               757.1810
 Red. masses --      3.2108                 1.5900                 1.1370
 Frc consts  --      0.6377                 0.4857                 0.3841
 IR Inten    --     21.4404                61.9905                 4.3721

                     22                     23                     24
                      A                      A                      A
 Frequencies --    781.4590               822.1828               889.9355
 Red. masses --      1.7692                 1.4872                 1.8692
 Frc consts  --      0.6366                 0.5923                 0.8722
 IR Inten    --     46.8300                 3.5898                36.8192

                     25                     26                     27
                      A                      A                      A
 Frequencies --    924.6663               964.3772               985.4385
 Red. masses --      1.5033                 2.1366                 2.2643
 Frc consts  --      0.7573                 1.1707                 1.2955
 IR Inten    --      6.3123                 7.9610                19.6540

                     28                     29                     30
                      A                      A                      A
 Frequencies --   1002.1923              1053.4764              1061.3327
 Red. masses --      2.6067                 2.5451                 1.8667
 Frc consts  --      1.5426                 1.6642                 1.2389
 IR Inten    --     14.3122                 1.1651                25.0881

                     31                     32                     33
                      A                      A                      A
 Frequencies --   1102.8293              1121.8801              1141.0797
 Red. masses --      2.5214                 2.3538                 1.7746
 Frc consts  --      1.8068                 1.7454                 1.3614
 IR Inten    --     29.9016                 3.3744                 9.0010

                     34                     35                     36
                      A                      A                      A
 Frequencies --   1149.7774              1154.6429              1164.1355
 Red. masses --      1.8346                 1.8967                 2.1570
 Frc consts  --      1.4289                 1.4899                 1.7223
 IR Inten    --     25.2479                13.7961                44.9198

                     37                     38                     39
                      A                      A                      A
 Frequencies --   1194.8296              1216.1498              1226.5253
 Red. masses --      1.3709                 1.9082                 1.8935
 Frc consts  --      1.1531                 1.6629                 1.6783
 IR Inten    --     19.8209                19.9935                13.2179

                     40                     41                     42
                      A                      A                      A
 Frequencies --   1250.7736              1262.0603              1289.4538
 Red. masses --      2.4190                 1.4890                 1.2201
 Frc consts  --      2.2296                 1.3973                 1.1952
 IR Inten    --     11.5823                 3.7902                 2.4554

                     43                     44                     45
                      A                      A                      A
 Frequencies --   1322.7146              1323.2261              1354.1426
 Red. masses --      1.1028                 1.3117                 1.3950
 Frc consts  --      1.1368                 1.3532                 1.5072
 IR Inten    --      6.4078                 1.0693                11.1471

                     46                     47                     48
                      A                      A                      A
 Frequencies --   1405.8365              1415.5584              1430.1439
 Red. masses --      1.4403                 1.2594                 1.1946
 Frc consts  --      1.6772                 1.4869                 1.4395
 IR Inten    --     17.9348                23.7446                 6.8834

                     49                     50                     51
                      A                      A                      A
 Frequencies --   1436.6116              1446.9511              1465.2764
 Red. masses --      1.2068                 1.1628                 1.0871
 Frc consts  --      1.4674                 1.4344                 1.3752
 IR Inten    --     14.7731                 0.7071                 2.3294

                     52                     53                     54
                      A                      A                      A
 Frequencies --   1480.4231              1483.0870              1489.3573
 Red. masses --      1.0686                 1.0861                 1.2144
 Frc consts  --      1.3799                 1.4075                 1.5872
 IR Inten    --      7.6455                 7.1900                11.0089

                     55                     56                     57
                      A                      A                      A
 Frequencies --   1495.3471              1496.3148              1503.3034
 Red. masses --      1.0794                 1.1045                 1.0656
 Frc consts  --      1.4221                 1.4571                 1.4189
 IR Inten    --      1.4942                 5.1446                 5.2827

                     58                     59                     60
                      A                      A                      A
 Frequencies --   1514.8409              1519.4707              1529.7184
 Red. masses --      1.1140                 1.0890                 1.1195
 Frc consts  --      1.5062                 1.4813                 1.5435
 IR Inten    --      0.3612                 2.9115                 9.2626

                     61                     62                     63
                      A                      A                      A
 Frequencies --   1836.6985              2848.4026              2908.5860
 Red. masses --     10.0838                 1.0815                 1.0632
 Frc consts  --     20.0424                 5.1699                 5.2993
 IR Inten    --    202.3267               110.4804                75.7054

                     64                     65                     66
                      A                      A                      A
 Frequencies --   2918.7762              2938.7580              2960.2175
 Red. masses --      1.0728                 1.0602                 1.0818
 Frc consts  --      5.3849                 5.3947                 5.5850
 IR Inten    --     61.4168                96.6141                14.2651

                     67                     68                     69
                      A                      A                      A
 Frequencies --   2968.7394              3007.4546              3019.8461
 Red. masses --      1.0688                 1.0648                 1.0628
 Frc consts  --      5.5497                 5.6746                 5.7102
 IR Inten    --    110.7359                 1.6057                31.7090

                     70                     71                     72
                      A                      A                      A
 Frequencies --   3058.4829              3068.1587              3076.4356
 Red. masses --      1.0912                 1.0758                 1.0919
 Frc consts  --      6.0142                 5.9669                 6.0886
 IR Inten    --      7.4191                41.0400                19.2726

                     73                     74                     75
                      A                      A                      A
 Frequencies --   3092.7977              3097.9739              3114.1338
 Red. masses --      1.0696                 1.0975                 1.1026
 Frc consts  --      6.0282                 6.2060                 6.2998
 IR Inten    --     23.3687                29.4137                21.2737

                     76                     77                     78
                      A                      A                      A
 Frequencies --   3144.7118              3391.1710              3532.8457
 Red. masses --      1.1044                 1.0737                 1.0741
 Frc consts  --      6.4350                 7.2749                 7.8983
 IR Inten    --     13.6526                18.7627                 0.1144

 - Thermochemistry -
 -------------------
 Temperature   298.150 Kelvin.  Pressure   1.00000 Atm.
 Atom     1 has atomic number  6 and mass  12.00000

 Molecular mass:   159.13716 amu.
 Principal axes and moments of inertia in atomic units:
                           1         2         3
     Eigenvalues --   734.055915499.693345751.47908
           X            0.99999   0.00484  -0.00141
           Y           -0.00489   0.99942  -0.03381
           Z            0.00125   0.03382   0.99943
 This molecule is an asymmetric top.
 Rotational symmetry number  1.
 Warning -- assumption of classical behavior for rotation
           may cause significant error
 Rotational temperatures (Kelvin)      0.11799     0.01575     0.01506
 Rotational constants (GHZ):           2.45859     0.32815     0.31379
 Zero-point vibrational energy     652744.9 (Joules/Mol)
                                  156.00977 (Kcal/Mol)
 Warning -- explicit consideration of  19 degrees of freedom as
           vibrations may cause significant error
 Vibrational temperatures:     48.43    57.16    74.41    99.61   147.91
          (Kelvin)            184.88   205.75   222.80   300.74   337.81
                              369.69   423.44   460.64   494.93   571.47
                              630.67   693.32   743.46   835.33  1036.03
                             1089.41  1124.35  1182.94  1280.42  1330.39
                             1387.52  1417.83  1441.93  1515.72  1527.02
                             1586.73  1614.14  1641.76  1654.27  1661.27
                             1674.93  1719.09  1749.77  1764.70  1799.58
                             1815.82  1855.24  1903.09  1903.83  1948.31
                             2022.69  2036.67  2057.66  2066.96  2081.84
                             2108.21  2130.00  2133.83  2142.85  2151.47
                             2152.86  2162.92  2179.52  2186.18  2200.92
                             2642.60  4098.22  4184.81  4199.47  4228.22
                             4259.09  4271.35  4327.06  4344.89  4400.47
                             4414.40  4426.30  4449.85  4457.29  4480.54
                             4524.54  4879.14  5082.98

 Zero-point correction=                           0.248617 (Hartree/Particle)
 Thermal correction to Energy=                    0.262397
 Thermal correction to Enthalpy=                  0.263341
 Thermal correction to Gibbs Free Energy=         0.206433
 Sum of electronic and zero-point Energies=           -516.182686
 Sum of electronic and thermal Energies=              -516.168907
 Sum of electronic and thermal Enthalpies=            -516.167963
 Sum of electronic and thermal Free Energies=         -516.224870

                     E (Thermal)             CV                S
                      KCal/Mol        Cal/Mol-Kelvin    Cal/Mol-Kelvin
 Total                  164.656             48.119            119.772
 Electronic               0.000              0.000              0.000
 Translational            0.889              2.981             41.103
 Rotational               0.889              2.981             31.518
 Vibrational            162.879             42.157             47.151
 Vibration     1          0.594              1.983              5.601
 Vibration     2          0.594              1.981              5.273
 Vibration     3          0.596              1.977              4.751
 Vibration     4          0.598              1.969              4.175
 Vibration     5          0.605              1.947              3.400
 Vibration     6          0.611              1.925              2.968
 Vibration     7          0.616              1.910              2.763
 Vibration     8          0.620              1.897              2.612
 Vibration     9          0.642              1.827              2.052
 Vibration    10          0.655              1.788              1.842
 Vibration    11          0.667              1.751              1.682
 Vibration    12          0.689              1.684              1.449
 Vibration    13          0.706              1.635              1.309
 Vibration    14          0.723              1.587              1.194
 Vibration    15          0.764              1.476              0.973
 Vibration    16          0.799              1.387              0.832
 Vibration    17          0.838              1.290              0.705
 Vibration    18          0.872              1.213              0.618
 Vibration    19          0.937              1.073              0.484

                           ! Non-Optimized Parameters !
 Normal termination of Gaussian 16 at Tue Jun  1 08:17:52 2021.
