 Gaussian 16, Revision A.03,
 Gaussian 16:  ES64L-G16RevA.03 25-Dec-2016

 -----------------------------
 # opt freq b3lyp/6-31g(2df,p)
 -----------------------------

 -------------------
 Title Card Required
 -------------------
 Symbolic Z-matrix:
 Charge =  0 Multiplicity = 1

 SCF Done:  E(RB3LYP) =  -488.034635834     A.U. after   14 cycles
 SCF Done:  E(RB3LYP) =  -488.041155674     A.U. after   13 cycles
 SCF Done:  E(RB3LYP) =  -488.042837349     A.U. after   13 cycles
 SCF Done:  E(RB3LYP) =  -488.043477681     A.U. after   13 cycles
 SCF Done:  E(RB3LYP) =  -488.043748499     A.U. after   13 cycles
 SCF Done:  E(RB3LYP) =  -488.043983689     A.U. after   12 cycles
 SCF Done:  E(RB3LYP) =  -488.044032787     A.U. after   11 cycles
 SCF Done:  E(RB3LYP) =  -488.044084550     A.U. after   12 cycles
 SCF Done:  E(RB3LYP) =  -488.044118228     A.U. after   12 cycles
 SCF Done:  E(RB3LYP) =  -488.044111420     A.U. after   13 cycles
 SCF Done:  E(RB3LYP) =  -488.045161242     A.U. after   14 cycles
 SCF Done:  E(RB3LYP) =  -488.045400583     A.U. after   13 cycles
 SCF Done:  E(RB3LYP) =  -488.045520398     A.U. after   13 cycles
 SCF Done:  E(RB3LYP) =  -488.045602099     A.U. after   11 cycles
 SCF Done:  E(RB3LYP) =  -488.045634841     A.U. after   12 cycles
 SCF Done:  E(RB3LYP) =  -488.045642311     A.U. after   11 cycles
 SCF Done:  E(RB3LYP) =  -488.045644431     A.U. after   10 cycles
 SCF Done:  E(RB3LYP) =  -488.045644770     A.U. after    8 cycles
 SCF Done:  E(RB3LYP) =  -488.045644905     A.U. after    9 cycles
 Optimization completed.
    -- Stationary point found.
 Normal termination of Gaussian 16 at Tue Jun  1 00:38:50 2021.

 ----------------------------------------------------------------------
 #N Geom=AllCheck Guess=TCheck SCRF=Check GenChk RB3LYP/6-31G(2df,p) Fr
 eq
 ----------------------------------------------------------------------

 Structure from the checkpoint file:  "CNpCCNpCNdNNdN.chk"
 -------------------
 Title Card Required
 -------------------
 Charge =  0 Multiplicity = 1

                         Standard orientation:
 ---------------------------------------------------------------------
 Center     Atomic      Atomic             Coordinates (Angstroms)
 Number     Number       Type             X           Y           Z
 ---------------------------------------------------------------------
      1          6           0        1.802736    2.148446   -0.154278
      2          7           0        0.912944    0.998374   -0.220675
      3          6           0        1.471631   -0.204914    0.396563
      4          6           0        2.481589   -0.919562   -0.504518
      5          7           0        2.976338   -2.120351    0.175762
      6          6           0       -0.409499    1.312527    0.263915
      7          7           0       -1.388610    0.362762   -0.295983
      8          7           0       -2.134654   -0.093349    0.575940
      9          7           0       -3.049175   -1.037397    0.084012
     10          7           0       -4.075427   -0.521115   -0.374996
     11          1           0        2.764566    1.904866   -0.611403
     12          1           0        1.998754    2.489327    0.880160
     13          1           0        1.372335    2.984685   -0.713755
     14          1           0        0.659517   -0.906953    0.600159
     15          1           0        1.940372    0.026308    1.373843
     16          1           0        3.279191   -0.221934   -0.810131
     17          1           0        1.965186   -1.226753   -1.419733
     18          1           0        3.579366   -1.854763    0.949572
     19          1           0        3.556688   -2.660914   -0.457580
     20          1           0       -0.699914    2.292756   -0.132337
     21          1           0       -0.499487    1.340551    1.366040
     22          1           0       -4.685232   -1.308631   -0.643337
 ---------------------------------------------------------------------

 SCF Done:  E(RB3LYP) =  -488.045644905     A.U. after    1 cycles

 The electronic state is 1-A.
 Alpha  occ. eigenvalues --  -14.42262 -14.41509 -14.38698 -14.38682 -14.32819
 Alpha  occ. eigenvalues --  -14.30740 -10.23956 -10.20729 -10.20306 -10.20229
 Alpha  occ. eigenvalues --   -1.10258  -1.01110  -0.93048  -0.87535  -0.79611
 Alpha  occ. eigenvalues --   -0.72894  -0.70189  -0.63930  -0.58496  -0.56382
 Alpha  occ. eigenvalues --   -0.52067  -0.50052  -0.49562  -0.48128  -0.46593
 Alpha  occ. eigenvalues --   -0.45436  -0.44109  -0.42445  -0.40925  -0.38944
 Alpha  occ. eigenvalues --   -0.37605  -0.36670  -0.36056  -0.34644  -0.33808
 Alpha  occ. eigenvalues --   -0.27604  -0.24196  -0.23669  -0.22050
 Alpha virt. eigenvalues --   -0.05153  -0.04782   0.07970   0.08874   0.10136
 Alpha virt. eigenvalues --    0.11508   0.13227   0.14202   0.14985   0.15415
 Alpha virt. eigenvalues --    0.16532   0.18052   0.18615   0.18820   0.19375

 Mulliken charges:
               1
     1  C   -0.328781
     2  N   -0.055917
     3  C   -0.122378
     4  C   -0.160906
     5  N   -0.507018
     6  C   -0.082977
     7  N   -0.093721
     8  N   -0.038811
     9  N   -0.030732
    10  N   -0.248595
    11  H    0.126162
    12  H    0.096088
    13  H    0.122686
    14  H    0.124924
    15  H    0.071058
    16  H    0.079461
    17  H    0.118457
    18  H    0.223394
    19  H    0.228295
    20  H    0.122455
    21  H    0.095216
    22  H    0.261640
 Sum of Mulliken charges =   0.00000

 Dipole moment (field-independent basis, Debye):
    X=              1.8244    Y=              0.7243    Z=             -0.0027  Tot=              1.9629
 Quadrupole moment (field-independent basis, Debye-Ang):
   XX=            -48.7077   YY=            -58.8047   ZZ=            -61.9380
   XY=              3.1709   XZ=              1.4542   YZ=              2.8572

  Exact polarizability: 119.978  11.926  89.021   4.725   0.686  68.734
 Approx polarizability: 149.247  15.723 123.822   5.874  -3.767 112.581

                      1                      2                      3
                      A                      A                      A
 Frequencies --     32.4931                54.0716                56.0155
 Red. masses --      5.4045                 4.4685                 2.4299
 Frc consts  --      0.0034                 0.0077                 0.0045
 IR Inten    --      0.4539                 1.0021                 2.9453

                      4                      5                      6
                      A                      A                      A
 Frequencies --     84.7897               111.7944               150.6091
 Red. masses --      2.9011                 3.8962                 3.8278
 Frc consts  --      0.0123                 0.0287                 0.0512
 IR Inten    --      0.9755                 0.3257                 1.1405

                      7                      8                      9
                      A                      A                      A
 Frequencies --    193.4831               219.3097               238.1932
 Red. masses --      2.2770                 1.3846                 1.2088
 Frc consts  --      0.0502                 0.0392                 0.0404
 IR Inten    --      0.4674                 2.3850                34.3501

                     10                     11                     12
                      A                      A                      A
 Frequencies --    276.5279               330.3586               345.1602
 Red. masses --      3.3281                 2.9960                 2.9220
 Frc consts  --      0.1499                 0.1926                 0.2051
 IR Inten    --     10.0810                 2.9685                 0.4077

                     13                     14                     15
                      A                      A                      A
 Frequencies --    391.8748               416.3955               514.5282
 Red. masses --      2.7755                 3.8935                 3.4004
 Frc consts  --      0.2511                 0.3977                 0.5304
 IR Inten    --      7.4127                 8.1583                 1.9486

                     16                     17                     18
                      A                      A                      A
 Frequencies --    589.3541               660.6698               794.4033
 Red. masses --      3.4651                 5.1949                 2.4712
 Frc consts  --      0.7091                 1.3360                 0.9188
 IR Inten    --      8.0428                 5.3613                27.7087

                     19                     20                     21
                      A                      A                      A
 Frequencies --    800.7357               855.8069               908.1743
 Red. masses --      1.6219                 1.5319                 2.5424
 Frc consts  --      0.6127                 0.6611                 1.2355
 IR Inten    --     11.1588                94.6342                23.3009

                     22                     23                     24
                      A                      A                      A
 Frequencies --    961.1562               983.3722              1047.8418
 Red. masses --      2.2217                 1.9222                 1.6290
 Frc consts  --      1.2093                 1.0952                 1.0538
 IR Inten    --      6.2164                 0.8403                15.1472

                     25                     26                     27
                      A                      A                      A
 Frequencies --   1066.7064              1073.4067              1106.5717
 Red. masses --      2.4890                 2.1112                 2.1954
 Frc consts  --      1.6686                 1.4332                 1.5839
 IR Inten    --     28.9866                56.6783                25.7197

                     28                     29                     30
                      A                      A                      A
 Frequencies --   1108.5435              1148.1461              1181.9344
 Red. masses --      1.9886                 1.3653                 1.8859
 Frc consts  --      1.4398                 1.0604                 1.5522
 IR Inten    --     18.3213                 9.2963                15.3506

                     31                     32                     33
                      A                      A                      A
 Frequencies --   1213.3531              1255.3111              1305.5952
 Red. masses --      1.6916                 1.4926                 1.6322
 Frc consts  --      1.4673                 1.3858                 1.6392
 IR Inten    --     16.5468                 2.6031                35.1501

                     34                     35                     36
                      A                      A                      A
 Frequencies --   1326.0605              1343.9925              1383.1328
 Red. masses --      1.2525                 1.3148                 1.3658
 Frc consts  --      1.2976                 1.3993                 1.5394
 IR Inten    --      6.2059                 5.2599                17.0080

                     37                     38                     39
                      A                      A                      A
 Frequencies --   1397.2824              1438.9014              1455.7830
 Red. masses --      1.3508                 1.4574                 1.2410
 Frc consts  --      1.5538                 1.7778                 1.5496
 IR Inten    --     54.9476                 2.5491                56.6688

                     40                     41                     42
                      A                      A                      A
 Frequencies --   1458.4646              1484.0098              1489.0745
 Red. masses --      1.1527                 1.0922                 1.0580
 Frc consts  --      1.4446                 1.4172                 1.3822
 IR Inten    --      3.9739                 6.7074                 4.4770

                     43                     44                     45
                      A                      A                      A
 Frequencies --   1497.7666              1508.6490              1515.7820
 Red. masses --      1.1131                 1.0549                 1.0879
 Frc consts  --      1.4712                 1.4146                 1.4727
 IR Inten    --      7.7134                 4.1953                 2.9316

                     46                     47                     48
                      A                      A                      A
 Frequencies --   1616.3747              1646.2270              1659.3493
 Red. masses --     11.2616                10.5132                 1.0893
 Frc consts  --     17.3355                16.7867                 1.7671
 IR Inten    --      9.1449                23.4512                23.1615

                     49                     50                     51
                      A                      A                      A
 Frequencies --   2906.7023              2923.3002              2932.6143
 Red. masses --      1.0724                 1.0646                 1.0654
 Frc consts  --      5.3383                 5.3605                 5.3983
 IR Inten    --     51.6397                22.6692               136.7604

                     52                     53                     54
                      A                      A                      A
 Frequencies --   2956.2297              3056.1306              3070.6929
 Red. masses --      1.0717                 1.0901                 1.0721
 Frc consts  --      5.5185                 5.9985                 5.9561
 IR Inten    --     73.2915                 9.6665                41.7215

                     55                     56                     57
                      A                      A                      A
 Frequencies --   3072.2966              3101.0627              3117.8942
 Red. masses --      1.0871                 1.0890                 1.1009
 Frc consts  --      6.0457                 6.1700                 6.3054
 IR Inten    --     17.6371                17.3156                27.8619

                     58                     59                     60
                      A                      A                      A
 Frequencies --   3314.9860              3489.7158              3568.8333
 Red. masses --      1.0744                 1.0500                 1.0914
 Frc consts  --      6.9561                 7.5339                 8.1904
 IR Inten    --      4.4053                 0.5081                 0.0878

 - Thermochemistry -
 -------------------
 Temperature   298.150 Kelvin.  Pressure   1.00000 Atm.
 Atom     1 has atomic number  6 and mass  12.00000

 Molecular mass:   144.11234 amu.
 Principal axes and moments of inertia in atomic units:
                           1         2         3
     Eigenvalues --   893.835012981.440973695.60374
           X            1.00000  -0.00221   0.00117
           Y            0.00220   0.99994   0.01063
           Z           -0.00119  -0.01063   0.99994
 This molecule is an asymmetric top.
 Rotational symmetry number  1.
 Warning -- assumption of classical behavior for rotation
           may cause significant error
 Rotational temperatures (Kelvin)      0.09690     0.02905     0.02344
 Rotational constants (GHZ):           2.01910     0.60533     0.48835
 Zero-point vibrational energy     485731.7 (Joules/Mol)
                                  116.09266 (Kcal/Mol)
 Warning -- explicit consideration of  16 degrees of freedom as
           vibrations may cause significant error
 Vibrational temperatures:     46.75    77.80    80.59   121.99   160.85
          (Kelvin)            216.69   278.38   315.54   342.71   397.86
                              475.31   496.61   563.82   599.10   740.29
                              847.95   950.56  1142.97  1152.08  1231.32
                             1306.66  1382.89  1414.85  1507.61  1534.75
                             1544.39  1592.11  1594.95  1651.93  1700.54
                             1745.74  1806.11  1878.46  1907.91  1933.71
                             1990.02  2010.38  2070.26  2094.55  2098.41
                             2135.16  2142.45  2154.95  2170.61  2180.87
                             2325.60  2368.55  2387.43  4182.10  4205.98
                             4219.38  4253.36  4397.09  4418.04  4420.35
                             4461.74  4485.95  4769.53  5020.92  5134.76

 Zero-point correction=                           0.185005 (Hartree/Particle)
 Thermal correction to Energy=                    0.197060
 Thermal correction to Enthalpy=                  0.198004
 Thermal correction to Gibbs Free Energy=         0.145231
 Sum of electronic and zero-point Energies=           -487.860639
 Sum of electronic and thermal Energies=              -487.848585
 Sum of electronic and thermal Enthalpies=            -487.847641
 Sum of electronic and thermal Free Energies=         -487.900414

                     E (Thermal)             CV                S
                      KCal/Mol        Cal/Mol-Kelvin    Cal/Mol-Kelvin
 Total                  123.657             41.060            111.070
 Electronic               0.000              0.000              0.000
 Translational            0.889              2.981             40.807
 Rotational               0.889              2.981             30.666
 Vibrational            121.879             35.098             39.597
 Vibration     1          0.594              1.983              5.671
 Vibration     2          0.596              1.976              4.663
 Vibration     3          0.596              1.975              4.593
 Vibration     4          0.601              1.960              3.777
 Vibration     5          0.607              1.940              3.238
 Vibration     6          0.618              1.902              2.665
 Vibration     7          0.635              1.849              2.194
 Vibration     8          0.647              1.812              1.965
 Vibration     9          0.656              1.782              1.816
 Vibration    10          0.678              1.717              1.555
 Vibration    11          0.713              1.615              1.258
 Vibration    12          0.724              1.585              1.188
 Vibration    13          0.759              1.488              0.993
 Vibration    14          0.780              1.435              0.904
 Vibration    15          0.870              1.218              0.623
 Vibration    16          0.947              1.054              0.468

                           ! Non-Optimized Parameters !
 Normal termination of Gaussian 16 at Tue Jun  1 01:24:58 2021.
