 Gaussian 16, Revision A.03,
 Gaussian 16:  ES64L-G16RevA.03 25-Dec-2016

 -----------------------------
 # opt freq b3lyp/6-31g(2df,p)
 -----------------------------

 -------------------
 Title Card Required
 -------------------
 Symbolic Z-matrix:
 Charge =  0 Multiplicity = 1

 SCF Done:  E(RB3LYP) =  -379.812696466     A.U. after   12 cycles
 SCF Done:  E(RB3LYP) =  -379.820215259     A.U. after   11 cycles
 SCF Done:  E(RB3LYP) =  -379.821952599     A.U. after   11 cycles
 SCF Done:  E(RB3LYP) =  -379.824055199     A.U. after   12 cycles
 SCF Done:  E(RB3LYP) =  -379.826303290     A.U. after   11 cycles
 SCF Done:  E(RB3LYP) =  -379.827762412     A.U. after   13 cycles
 SCF Done:  E(RB3LYP) =  -379.827321646     A.U. after   11 cycles
 SCF Done:  E(RB3LYP) =  -379.827532661     A.U. after   11 cycles
 SCF Done:  E(RB3LYP) =  -379.828860944     A.U. after    8 cycles
 SCF Done:  E(RB3LYP) =  -379.829245945     A.U. after   10 cycles
 SCF Done:  E(RB3LYP) =  -379.829335722     A.U. after    9 cycles
 SCF Done:  E(RB3LYP) =  -379.829379852     A.U. after    9 cycles
 SCF Done:  E(RB3LYP) =  -379.829398460     A.U. after    9 cycles
 SCF Done:  E(RB3LYP) =  -379.829405337     A.U. after    9 cycles
 SCF Done:  E(RB3LYP) =  -379.829406065     A.U. after    7 cycles
 SCF Done:  E(RB3LYP) =  -379.829406449     A.U. after    7 cycles
 SCF Done:  E(RB3LYP) =  -379.829406501     A.U. after    6 cycles
 Optimization completed.
    -- Stationary point found.
 Normal termination of Gaussian 16 at Tue Jun  1 20:05:49 2021.

 ----------------------------------------------------------------------
 #N Geom=AllCheck Guess=TCheck SCRF=Check GenChk RB3LYP/6-31G(2df,p) Fr
 eq
 ----------------------------------------------------------------------

 Structure from the checkpoint file:  "CNpCCNpNCN.chk"
 -------------------
 Title Card Required
 -------------------
 Charge =  0 Multiplicity = 1

                         Standard orientation:
 ---------------------------------------------------------------------
 Center     Atomic      Atomic             Coordinates (Angstroms)
 Number     Number       Type             X           Y           Z
 ---------------------------------------------------------------------
      1          6           0       -0.009856    1.831271    0.109981
      2          7           0       -0.037121    0.392276   -0.120087
      3          6           0        1.145535   -0.296948    0.391660
      4          6           0        2.382022   -0.092335   -0.486116
      5          7           0        3.496987   -0.877383    0.055740
      6          7           0       -1.210714   -0.210468    0.411425
      7          6           0       -2.328445   -0.162543   -0.522319
      8          7           0       -3.469216   -0.765822    0.151816
      9          1           0        0.864846    2.278382   -0.369867
     10          1           0        0.024189    2.084336    1.187920
     11          1           0       -0.899305    2.294953   -0.324906
     12          1           0        0.909736   -1.361483    0.421408
     13          1           0        1.378300    0.010811    1.432134
     14          1           0        2.609064    0.982508   -0.586266
     15          1           0        2.155774   -0.461519   -1.492316
     16          1           0        3.790010   -0.484146    0.946187
     17          1           0        4.301138   -0.800784   -0.559252
     18          1           0       -1.497176    0.237275    1.286103
     19          1           0       -1.992799   -0.671480   -1.438871
     20          1           0       -2.624062    0.861817   -0.811228
     21          1           0       -3.307915   -1.761884    0.266493
     22          1           0       -4.306891   -0.655671   -0.409033
 ---------------------------------------------------------------------

 SCF Done:  E(RB3LYP) =  -379.829406501     A.U. after    1 cycles

 The electronic state is 1-A.
 Alpha  occ. eigenvalues --  -14.33763 -14.32665 -14.30625 -14.30352 -10.22115
 Alpha  occ. eigenvalues --  -10.19788 -10.19760 -10.19097  -0.97094  -0.88294
 Alpha  occ. eigenvalues --   -0.87061  -0.79105  -0.71485  -0.65862  -0.61170
 Alpha  occ. eigenvalues --   -0.57684  -0.50349  -0.50135  -0.48348  -0.45484
 Alpha  occ. eigenvalues --   -0.44616  -0.43013  -0.41429  -0.40984  -0.39432
 Alpha  occ. eigenvalues --   -0.38190  -0.36318  -0.34528  -0.33577  -0.24105
 Alpha  occ. eigenvalues --   -0.23398  -0.22400  -0.21621
 Alpha virt. eigenvalues --    0.08075   0.09035   0.09258   0.12800   0.13358
 Alpha virt. eigenvalues --    0.13625   0.14208   0.15895   0.16356   0.17618
 Alpha virt. eigenvalues --    0.18524   0.19506   0.19821   0.20990   0.21914

 Mulliken charges:
               1
     1  C   -0.323635
     2  N   -0.068138
     3  C   -0.079296
     4  C   -0.165035
     5  N   -0.507475
     6  N   -0.257674
     7  C   -0.066221
     8  N   -0.515098
     9  H    0.123047
    10  H    0.089442
    11  H    0.122450
    12  H    0.120458
    13  H    0.059576
    14  H    0.076049
    15  H    0.110759
    16  H    0.222510
    17  H    0.225689
    18  H    0.203045
    19  H    0.093237
    20  H    0.077643
    21  H    0.230924
    22  H    0.227742
 Sum of Mulliken charges =  -0.00000

 Dipole moment (field-independent basis, Debye):
    X=              0.1926    Y=              1.3579    Z=             -0.6010  Tot=              1.4974
 Quadrupole moment (field-independent basis, Debye-Ang):
   XX=            -42.7251   YY=            -51.5699   ZZ=            -50.9293
   XY=              5.0278   XZ=              3.5525   YZ=              1.5511

  Exact polarizability:  96.136   0.545  70.045   1.164  -0.345  65.941
 Approx polarizability: 111.710   0.221  99.475   0.852  -0.832 100.318

                      1                      2                      3
                      A                      A                      A
 Frequencies --     55.1775                69.5045                85.0860
 Red. masses --      1.9944                 3.1618                 2.2634
 Frc consts  --      0.0036                 0.0090                 0.0097
 IR Inten    --      3.9056                 2.2158                 1.6887

                      4                      5                      6
                      A                      A                      A
 Frequencies --    144.2096               163.9617               227.7025
 Red. masses --      2.2112                 2.9046                 1.3065
 Frc consts  --      0.0271                 0.0460                 0.0399
 IR Inten    --      2.1135                 2.8290                12.2270

                      7                      8                      9
                      A                      A                      A
 Frequencies --    235.8340               272.6710               292.8085
 Red. masses --      1.0773                 1.3345                 1.8862
 Frc consts  --      0.0353                 0.0585                 0.0953
 IR Inten    --     20.7080                16.0491                38.8621

                     10                     11                     12
                      A                      A                      A
 Frequencies --    345.0714               361.9734               431.5065
 Red. masses --      3.8688                 2.6184                 2.5890
 Frc consts  --      0.2714                 0.2021                 0.2840
 IR Inten    --      2.7379                 7.1918                 5.0892

                     13                     14                     15
                      A                      A                      A
 Frequencies --    478.0087               574.7736               798.3513
 Red. masses --      3.1254                 3.4186                 1.2781
 Frc consts  --      0.4208                 0.6654                 0.4799
 IR Inten    --      2.9604                 6.8581                 4.3865

                     16                     17                     18
                      A                      A                      A
 Frequencies --    813.2384               859.1619               867.0534
 Red. masses --      1.6150                 1.3914                 1.3497
 Frc consts  --      0.6293                 0.6051                 0.5978
 IR Inten    --     58.4708               105.1475               168.9659

                     19                     20                     21
                      A                      A                      A
 Frequencies --    921.2623               964.0607               998.3815
 Red. masses --      2.0729                 1.5032                 1.7123
 Frc consts  --      1.0365                 0.8232                 1.0056
 IR Inten    --     31.6298                 4.7999                10.4315

                     22                     23                     24
                      A                      A                      A
 Frequencies --   1054.2163              1072.8027              1090.7985
 Red. masses --      2.0106                 2.8238                 2.5036
 Frc consts  --      1.3165                 1.9148                 1.7551
 IR Inten    --     24.2100                10.8645                16.8169

                     25                     26                     27
                      A                      A                      A
 Frequencies --   1111.5960              1134.1611              1158.1336
 Red. masses --      1.9506                 1.5693                 1.6886
 Frc consts  --      1.4201                 1.1893                 1.3345
 IR Inten    --      6.7551                22.3576                 8.0614

                     28                     29                     30
                      A                      A                      A
 Frequencies --   1182.4730              1200.6127              1234.8185
 Red. masses --      2.3189                 1.4971                 1.6375
 Frc consts  --      1.9104                 1.2715                 1.4711
 IR Inten    --     10.9216                 7.0491                 8.9256

                     31                     32                     33
                      A                      A                      A
 Frequencies --   1280.2737              1307.0099              1318.5752
 Red. masses --      2.0196                 1.5502                 1.2761
 Frc consts  --      1.9503                 1.5603                 1.3072
 IR Inten    --      1.4621                 3.0443                 4.9817

                     34                     35                     36
                      A                      A                      A
 Frequencies --   1326.6456              1369.7304              1418.4464
 Red. masses --      1.1292                 1.3243                 1.2455
 Frc consts  --      1.1709                 1.4639                 1.4765
 IR Inten    --      5.0534                11.7476                19.5678

                     37                     38                     39
                      A                      A                      A
 Frequencies --   1431.8691              1454.3590              1483.1618
 Red. masses --      1.4769                 1.2062                 1.1118
 Frc consts  --      1.7841                 1.5031                 1.4410
 IR Inten    --      5.3663                 5.9710                12.5003

                     40                     41                     42
                      A                      A                      A
 Frequencies --   1490.9926              1498.0343              1508.9471
 Red. masses --      1.0723                 1.0721                 1.1598
 Frc consts  --      1.4046                 1.4175                 1.5559
 IR Inten    --      1.6500                 2.0904                14.3357

                     43                     44                     45
                      A                      A                      A
 Frequencies --   1519.8259              1538.7574              1644.3428
 Red. masses --      1.0985                 1.0836                 1.0998
 Frc consts  --      1.4949                 1.5117                 1.7520
 IR Inten    --      7.4831                 1.5379                28.2180

                     46                     47                     48
                      A                      A                      A
 Frequencies --   1658.3037              2890.3485              2918.8066
 Red. masses --      1.0887                 1.0726                 1.0607
 Frc consts  --      1.7639                 5.2794                 5.3242
 IR Inten    --     23.6409                70.8794                85.7292

                     49                     50                     51
                      A                      A                      A
 Frequencies --   2939.1430              2951.7053              2987.7500
 Red. masses --      1.0668                 1.0717                 1.0929
 Frc consts  --      5.4294                 5.5014                 5.7480
 IR Inten    --     68.6686                81.8889                62.2943

                     52                     53                     54
                      A                      A                      A
 Frequencies --   3065.0126              3076.0547              3115.9893
 Red. masses --      1.0878                 1.0697                 1.1016
 Frc consts  --      6.0211                 5.9637                 6.3017
 IR Inten    --     29.7085                33.5313                27.2135

                     55                     56                     57
                      A                      A                      A
 Frequencies --   3120.7603              3387.9656              3486.3381
 Red. masses --      1.0888                 1.0729                 1.0499
 Frc consts  --      6.2477                 7.2560                 7.5185
 IR Inten    --     15.8602                 9.2750                 0.7216

                     58                     59                     60
                      A                      A                      A
 Frequencies --   3501.6111              3564.6168              3588.7866
 Red. masses --      1.0495                 1.0914                 1.0923
 Frc consts  --      7.5815                 8.1707                 8.2891
 IR Inten    --      0.2359                 0.0446                 0.7779

 - Thermochemistry -
 -------------------
 Temperature   298.150 Kelvin.  Pressure   1.00000 Atm.
 Atom     1 has atomic number  6 and mass  12.00000

 Molecular mass:   118.12185 amu.
 Principal axes and moments of inertia in atomic units:
                           1         2         3
     Eigenvalues --   394.591092230.198782457.75551
           X            0.99998   0.00462   0.00476
           Y           -0.00468   0.99991   0.01254
           Z           -0.00470  -0.01256   0.99991
 This molecule is an asymmetric top.
 Rotational symmetry number  1.
 Rotational temperatures (Kelvin)      0.21950     0.03884     0.03524
 Rotational constants (GHZ):           4.57370     0.80923     0.73430
 Zero-point vibrational energy     526617.5 (Joules/Mol)
                                  125.86461 (Kcal/Mol)
 Warning -- explicit consideration of  14 degrees of freedom as
           vibrations may cause significant error
 Vibrational temperatures:     79.39   100.00   122.42   207.49   235.90
          (Kelvin)            327.61   339.31   392.31   421.29   496.48
                              520.80   620.84   687.75   826.97  1148.65
                             1170.07  1236.14  1247.50  1325.49  1387.07
                             1436.45  1516.78  1543.52  1569.42  1599.34
                             1631.80  1666.30  1701.31  1727.41  1776.63
                             1842.03  1880.50  1897.14  1908.75  1970.74
                             2040.83  2060.14  2092.50  2133.94  2145.21
                             2155.34  2171.04  2186.69  2213.93  2365.84
                             2385.93  4158.57  4199.51  4228.77  4246.85
                             4298.71  4409.87  4425.76  4483.21  4490.08
                             4874.53  5016.06  5038.04  5128.69  5163.46

 Zero-point correction=                           0.200578 (Hartree/Particle)
 Thermal correction to Energy=                    0.211096
 Thermal correction to Enthalpy=                  0.212040
 Thermal correction to Gibbs Free Energy=         0.164467
 Sum of electronic and zero-point Energies=           -379.628828
 Sum of electronic and thermal Energies=              -379.618310
 Sum of electronic and thermal Enthalpies=            -379.617366
 Sum of electronic and thermal Free Energies=         -379.664940

                     E (Thermal)             CV                S
                      KCal/Mol        Cal/Mol-Kelvin    Cal/Mol-Kelvin
 Total                  132.465             37.015            100.127
 Electronic               0.000              0.000              0.000
 Translational            0.889              2.981             40.214
 Rotational               0.889              2.981             29.160
 Vibrational            130.687             31.053             30.753
 Vibration     1          0.596              1.976              4.623
 Vibration     2          0.598              1.969              4.167
 Vibration     3          0.601              1.960              3.770
 Vibration     4          0.616              1.909              2.747
 Vibration     5          0.623              1.887              2.504
 Vibration     6          0.651              1.799              1.897
 Vibration     7          0.655              1.786              1.834
 Vibration     8          0.676              1.724              1.579
 Vibration     9          0.688              1.687              1.458
 Vibration    10          0.723              1.585              1.189
 Vibration    11          0.736              1.551              1.114
 Vibration    12          0.793              1.402              0.854
 Vibration    13          0.835              1.299              0.715
 Vibration    14          0.931              1.086              0.495

                           ! Non-Optimized Parameters !
 Normal termination of Gaussian 16 at Tue Jun  1 20:31:23 2021.
