 Gaussian 16, Revision A.03,
 Gaussian 16:  ES64L-G16RevA.03 25-Dec-2016

 -----------------------------
 # opt freq b3lyp/6-31g(2df,p)
 -----------------------------

 -------------------
 Title Card Required
 -------------------
 Symbolic Z-matrix:
 Charge =  0 Multiplicity = 1

 SCF Done:  E(RB3LYP) =  -509.090896637     A.U. after   15 cycles
 SCF Done:  E(RB3LYP) =  -509.100066300     A.U. after   14 cycles
 SCF Done:  E(RB3LYP) =  -509.102386433     A.U. after   13 cycles
 SCF Done:  E(RB3LYP) =  -509.105315839     A.U. after   14 cycles
 SCF Done:  E(RB3LYP) =  -509.108130349     A.U. after   12 cycles
 SCF Done:  E(RB3LYP) =  -509.110013883     A.U. after   13 cycles
 SCF Done:  E(RB3LYP) =  -509.110725273     A.U. after   13 cycles
 SCF Done:  E(RB3LYP) =  -509.110849598     A.U. after   13 cycles
 SCF Done:  E(RB3LYP) =  -509.110608951     A.U. after   14 cycles
 SCF Done:  E(RB3LYP) =  -509.110967034     A.U. after   13 cycles
 SCF Done:  E(RB3LYP) =  -509.118342346     A.U. after   15 cycles
 SCF Done:  E(RB3LYP) =  -509.116304633     A.U. after   15 cycles
 SCF Done:  E(RB3LYP) =  -509.118598562     A.U. after   14 cycles
 SCF Done:  E(RB3LYP) =  -509.118749101     A.U. after   15 cycles
 SCF Done:  E(RB3LYP) =  -509.118848096     A.U. after   13 cycles
 SCF Done:  E(RB3LYP) =  -509.118852228     A.U. after   11 cycles
 SCF Done:  E(RB3LYP) =  -509.118854813     A.U. after   12 cycles
 SCF Done:  E(RB3LYP) =  -509.118855151     A.U. after    9 cycles
 SCF Done:  E(RB3LYP) =  -509.118855246     A.U. after    9 cycles
 Optimization completed.
    -- Stationary point found.
 Normal termination of Gaussian 16 at Tue Jun  1 20:42:08 2021.

 ----------------------------------------------------------------------
 #N Geom=AllCheck Guess=TCheck SCRF=Check GenChk RB3LYP/6-31G(2df,p) Fr
 eq
 ----------------------------------------------------------------------

 Structure from the checkpoint file:  "CNpCNCNdOpNCN.chk"
 -------------------
 Title Card Required
 -------------------
 Charge =  0 Multiplicity = 1

                         Standard orientation:
 ---------------------------------------------------------------------
 Center     Atomic      Atomic             Coordinates (Angstroms)
 Number     Number       Type             X           Y           Z
 ---------------------------------------------------------------------
      1          6           0       -0.651105    1.333845   -1.321598
      2          7           0       -0.691930    0.497041   -0.127129
      3          6           0        0.139634    1.003698    0.955811
      4          7           0        1.542741    0.900669    0.586413
      5          6           0        2.079365   -0.427691    0.512615
      6          7           0        3.098895   -0.497749   -0.595316
      7          8           0        4.059616   -1.161677   -0.302128
      8          7           0       -2.002733    0.243912    0.350134
      9          6           0       -2.627412   -0.895601   -0.314089
     10          7           0       -3.977277   -1.006215    0.215750
     11          1           0        0.390380    1.482125   -1.612901
     12          1           0       -1.113777    2.324229   -1.150316
     13          1           0       -1.178862    0.841085   -2.141927
     14          1           0       -0.139932    0.420717    1.844587
     15          1           0       -0.054510    2.069191    1.178208
     16          1           0        2.118585    1.521688    1.137779
     17          1           0        1.276084   -1.097335    0.177968
     18          1           0        2.539592   -0.827747    1.429874
     19          1           0       -2.606512    1.059827    0.224111
     20          1           0       -1.972621   -1.762465   -0.134310
     21          1           0       -2.712210   -0.775137   -1.407682
     22          1           0       -3.944469   -1.323926    1.179466
     23          1           0       -4.509442   -1.687956   -0.313231
 ---------------------------------------------------------------------

 SCF Done:  E(RB3LYP) =  -509.118855246     A.U. after    1 cycles

 The electronic state is 1-A.
 Alpha  occ. eigenvalues --  -19.19216 -14.43189 -14.34858 -14.33744 -14.33041
 Alpha  occ. eigenvalues --  -14.31367 -10.23495 -10.23180 -10.22968 -10.19835
 Alpha  occ. eigenvalues --   -1.14938  -0.98647  -0.92281  -0.88483  -0.79709
 Alpha  occ. eigenvalues --   -0.75469  -0.69381  -0.63896  -0.61254  -0.58948
 Alpha  occ. eigenvalues --   -0.52730  -0.51236  -0.50353  -0.48708  -0.48064
 Alpha  occ. eigenvalues --   -0.45289  -0.44568  -0.44029  -0.42261  -0.41063
 Alpha  occ. eigenvalues --   -0.39985  -0.39261  -0.38330  -0.37132  -0.36907
 Alpha  occ. eigenvalues --   -0.25019  -0.24706  -0.23749  -0.22863  -0.21106
 Alpha virt. eigenvalues --   -0.07340   0.08023   0.08279   0.09502   0.11332
 Alpha virt. eigenvalues --    0.12630   0.13195   0.15312   0.15652   0.15801
 Alpha virt. eigenvalues --    0.16858   0.17040   0.18244   0.18963   0.20052

 Mulliken charges:
               1
     1  C   -0.328986
     2  N   -0.052033
     3  C   -0.096460
     4  N   -0.289217
     5  C   -0.077941
     6  N    0.025850
     7  O   -0.202138
     8  N   -0.259026
     9  C   -0.067913
    10  N   -0.514018
    11  H    0.150633
    12  H    0.089513
    13  H    0.122354
    14  H    0.098648
    15  H    0.078508
    16  H    0.230840
    17  H    0.146074
    18  H    0.097566
    19  H    0.208566
    20  H    0.091585
    21  H    0.085024
    22  H    0.231662
    23  H    0.230907
 Sum of Mulliken charges =  -0.00000

 Dipole moment (field-independent basis, Debye):
    X=             -2.3418    Y=              0.2676    Z=              1.3222  Tot=              2.7025
 Quadrupole moment (field-independent basis, Debye-Ang):
   XX=            -70.0930   YY=            -56.1138   ZZ=            -59.5307
   XY=              8.7034   XZ=              6.8745   YZ=              0.7576

  Exact polarizability: 112.143  -2.025  79.543  -0.828   0.630  75.784
 Approx polarizability: 142.098  -7.841 116.306  -1.842   1.752 110.958

                      1                      2                      3
                      A                      A                      A
 Frequencies --     32.8385                38.5784                73.1095
 Red. masses --      4.1581                 6.1659                 5.9293
 Frc consts  --      0.0026                 0.0054                 0.0187
 IR Inten    --      1.4840                 1.2845                 0.5652

                      4                      5                      6
                      A                      A                      A
 Frequencies --     86.5240                99.6338               140.2147
 Red. masses --      2.6007                 2.3905                 2.3618
 Frc consts  --      0.0115                 0.0140                 0.0274
 IR Inten    --      2.2142                 2.3842                 8.6362

                      7                      8                      9
                      A                      A                      A
 Frequencies --    201.5221               232.3004               251.4056
 Red. masses --      2.9114                 1.6428                 1.7687
 Frc consts  --      0.0697                 0.0522                 0.0659
 IR Inten    --      9.1548                 1.0097                10.5166

                     10                     11                     12
                      A                      A                      A
 Frequencies --    275.2633               344.4917               373.4306
 Red. masses --      1.2187                 2.3921                 3.7867
 Frc consts  --      0.0544                 0.1673                 0.3111
 IR Inten    --     33.7669                 0.5539                 1.9482

                     13                     14                     15
                      A                      A                      A
 Frequencies --    394.7719               434.8137               469.4037
 Red. masses --      3.3636                 2.6083                 3.3333
 Frc consts  --      0.3088                 0.2905                 0.4327
 IR Inten    --      5.6619                 4.7075                 3.7540

                     16                     17                     18
                      A                      A                      A
 Frequencies --    538.8589               596.9852               679.9329
 Red. masses --      3.2814                 2.7016                 1.5422
 Frc consts  --      0.5614                 0.5673                 0.4201
 IR Inten    --     22.1226                24.7485                56.0415

                     19                     20                     21
                      A                      A                      A
 Frequencies --    809.4566               846.3307               855.5428
 Red. masses --      1.9667                 2.4225                 1.5769
 Frc consts  --      0.7592                 1.0223                 0.6801
 IR Inten    --     36.0471                82.3310                78.1170

                     22                     23                     24
                      A                      A                      A
 Frequencies --    902.4316               964.9069               996.5412
 Red. masses --      2.3736                 1.4777                 2.0431
 Frc consts  --      1.1389                 0.8106                 1.1955
 IR Inten    --     53.7975                 7.7158                 9.6724

                     25                     26                     27
                      A                      A                      A
 Frequencies --   1039.0990              1072.4714              1089.1625
 Red. masses --      2.5307                 2.0448                 2.4606
 Frc consts  --      1.6099                 1.3857                 1.7198
 IR Inten    --      7.8615                31.0746                 2.5905

                     28                     29                     30
                      A                      A                      A
 Frequencies --   1105.7372              1142.0451              1170.1373
 Red. masses --      1.7274                 1.7226                 2.3960
 Frc consts  --      1.2444                 1.3237                 1.9329
 IR Inten    --     16.1144                32.5427                51.7160

                     31                     32                     33
                      A                      A                      A
 Frequencies --   1179.1915              1194.2981              1204.6263
 Red. masses --      2.2823                 2.3635                 1.3059
 Frc consts  --      1.8698                 1.9862                 1.1165
 IR Inten    --     24.4395                30.5111                19.3261

                     34                     35                     36
                      A                      A                      A
 Frequencies --   1245.5230              1287.0576              1309.8143
 Red. masses --      1.3844                 2.0135                 1.4694
 Frc consts  --      1.2654                 1.9652                 1.4852
 IR Inten    --     71.9588                 3.5707                 7.5439

                     37                     38                     39
                      A                      A                      A
 Frequencies --   1323.3353              1348.3140              1406.8607
 Red. masses --      1.3249                 1.2798                 1.2605
 Frc consts  --      1.3670                 1.3708                 1.4699
 IR Inten    --      3.4271                10.5454                17.0678

                     40                     41                     42
                      A                      A                      A
 Frequencies --   1418.6752              1442.3683              1450.7154
 Red. masses --      1.2462                 1.1328                 1.1905
 Frc consts  --      1.4778                 1.3885                 1.4762
 IR Inten    --     32.6205                 0.4262                 9.9437

                     43                     44                     45
                      A                      A                      A
 Frequencies --   1482.2550              1491.2110              1502.6801
 Red. masses --      1.1239                 1.1963                 1.0873
 Frc consts  --      1.4548                 1.5674                 1.4465
 IR Inten    --      9.8936                 6.4407                 7.5446

                     46                     47                     48
                      A                      A                      A
 Frequencies --   1510.5949              1522.9418              1537.1488
 Red. masses --      1.1383                 1.1629                 1.0833
 Frc consts  --      1.5304                 1.5891                 1.5081
 IR Inten    --     12.8275                 9.6782                 1.2203

                     49                     50                     51
                      A                      A                      A
 Frequencies --   1646.4179              1667.4254              2928.9097
 Red. masses --      1.1003                13.3274                 1.0644
 Frc consts  --      1.7573                21.8317                 5.3800
 IR Inten    --     27.9665               123.3212                31.4013

                     52                     53                     54
                      A                      A                      A
 Frequencies --   2935.1927              2951.8015              2972.5708
 Red. masses --      1.0631                 1.0607                 1.0609
 Frc consts  --      5.3961                 5.4452                 5.5234
 IR Inten    --    136.1482                63.6839                51.2157

                     55                     56                     57
                      A                      A                      A
 Frequencies --   2984.8527              3012.4707              3062.1778
 Red. masses --      1.0997                 1.0924                 1.0986
 Frc consts  --      5.7725                 5.8408                 6.0694
 IR Inten    --     66.5596                42.8571                12.3082

                     58                     59                     60
                      A                      A                      A
 Frequencies --   3086.9262              3138.2583              3399.7842
 Red. masses --      1.0725                 1.1019                 1.0730
 Frc consts  --      6.0213                 6.3937                 7.3069
 IR Inten    --     25.7016                 9.5242                 7.9516

                     61                     62                     63
                      A                      A                      A
 Frequencies --   3505.5391              3582.6299              3593.0169
 Red. masses --      1.0495                 1.0749                 1.0925
 Frc consts  --      7.5990                 8.1290                 8.3095
 IR Inten    --      0.2282                 4.5626                 1.2567

 - Thermochemistry -
 -------------------
 Temperature   298.150 Kelvin.  Pressure   1.00000 Atm.
 Atom     1 has atomic number  6 and mass  12.00000

 Molecular mass:   147.11201 amu.
 Principal axes and moments of inertia in atomic units:
                           1         2         3
     Eigenvalues --   703.148323554.123843755.60290
           X            0.99983   0.01542   0.01020
           Y           -0.01493   0.99882  -0.04630
           Z           -0.01090   0.04614   0.99888
 This molecule is an asymmetric top.
 Rotational symmetry number  1.
 Warning -- assumption of classical behavior for rotation
           may cause significant error
 Rotational temperatures (Kelvin)      0.12318     0.02437     0.02306
 Rotational constants (GHZ):           2.56666     0.50779     0.48055
 Zero-point vibrational energy     517884.5 (Joules/Mol)
                                  123.77736 (Kcal/Mol)
 Warning -- explicit consideration of  17 degrees of freedom as
           vibrations may cause significant error
 Vibrational temperatures:     47.25    55.51   105.19   124.49   143.35
          (Kelvin)            201.74   289.95   334.23   361.72   396.04
                              495.65   537.28   567.99   625.60   675.37
                              775.30   858.93   978.27  1164.63  1217.68
                             1230.94  1298.40  1388.29  1433.80  1495.03
                             1543.05  1567.06  1590.91  1643.15  1683.57
                             1696.59  1718.33  1733.19  1792.03  1851.79
                             1884.53  1903.98  1939.92  2024.16  2041.16
                             2075.25  2087.26  2132.63  2145.52  2162.02
                             2173.41  2191.17  2211.61  2368.83  2399.05
                             4214.05  4223.09  4246.98  4276.87  4294.54
                             4334.27  4405.79  4441.40  4515.25  4891.53
                             5043.69  5154.61  5169.55

 Zero-point correction=                           0.197252 (Hartree/Particle)
 Thermal correction to Energy=                    0.209444
 Thermal correction to Enthalpy=                  0.210388
 Thermal correction to Gibbs Free Energy=         0.157346
 Sum of electronic and zero-point Energies=           -508.921603
 Sum of electronic and thermal Energies=              -508.909411
 Sum of electronic and thermal Enthalpies=            -508.908467
 Sum of electronic and thermal Free Energies=         -508.961510

                     E (Thermal)             CV                S
                      KCal/Mol        Cal/Mol-Kelvin    Cal/Mol-Kelvin
 Total                  131.428             42.224            111.637
 Electronic               0.000              0.000              0.000
 Translational            0.889              2.981             40.869
 Rotational               0.889              2.981             30.618
 Vibrational            129.651             36.262             40.150
 Vibration     1          0.594              1.983              5.650
 Vibration     2          0.594              1.981              5.331
 Vibration     3          0.599              1.967              4.068
 Vibration     4          0.601              1.959              3.737
 Vibration     5          0.604              1.949              3.461
 Vibration     6          0.615              1.913              2.801
 Vibration     7          0.638              1.838              2.119
 Vibration     8          0.653              1.792              1.861
 Vibration     9          0.663              1.760              1.721
 Vibration    10          0.677              1.719              1.563
 Vibration    11          0.723              1.586              1.191
 Vibration    12          0.745              1.527              1.066
 Vibration    13          0.762              1.481              0.982
 Vibration    14          0.795              1.394              0.843
 Vibration    15          0.827              1.318              0.739
 Vibration    16          0.894              1.164              0.568
 Vibration    17          0.955              1.038              0.455

                           ! Non-Optimized Parameters !
 Normal termination of Gaussian 16 at Tue Jun  1 21:16:44 2021.
