 Gaussian 16, Revision A.03,
 Gaussian 16:  ES64L-G16RevA.03 25-Dec-2016

 -----------------------------
 # opt freq b3lyp/6-31g(2df,p)
 -----------------------------

 -------------------
 Title Card Required
 -------------------
 Symbolic Z-matrix:
 Charge =  0 Multiplicity = 1

 SCF Done:  E(RB3LYP) =  -447.516642998     A.U. after   15 cycles
 SCF Done:  E(RB3LYP) =  -447.525490094     A.U. after   14 cycles
 SCF Done:  E(RB3LYP) =  -447.528643100     A.U. after   15 cycles
 SCF Done:  E(RB3LYP) =  -447.531503565     A.U. after   16 cycles
 SCF Done:  E(RB3LYP) =  -447.534619855     A.U. after   16 cycles
 SCF Done:  E(RB3LYP) =  -447.535746942     A.U. after   15 cycles
 SCF Done:  E(RB3LYP) =  -447.536522082     A.U. after   12 cycles
 SCF Done:  E(RB3LYP) =  -447.536714663     A.U. after   12 cycles
 SCF Done:  E(RB3LYP) =  -447.536825186     A.U. after   13 cycles
 SCF Done:  E(RB3LYP) =  -447.536978834     A.U. after   13 cycles
 SCF Done:  E(RB3LYP) =  -447.537465984     A.U. after   14 cycles
 SCF Done:  E(RB3LYP) =  -447.537717246     A.U. after   14 cycles
 SCF Done:  E(RB3LYP) =  -447.538028012     A.U. after   15 cycles
 SCF Done:  E(RB3LYP) =  -447.538076327     A.U. after   11 cycles
 SCF Done:  E(RB3LYP) =  -447.538090946     A.U. after   12 cycles
 SCF Done:  E(RB3LYP) =  -447.538095177     A.U. after    9 cycles
 SCF Done:  E(RB3LYP) =  -447.538096210     A.U. after    8 cycles
 SCF Done:  E(RB3LYP) =  -447.538096389     A.U. after    7 cycles
 SCF Done:  E(RB3LYP) =  -447.538096422     A.U. after    8 cycles
 Optimization completed.
    -- Stationary point found.
 Normal termination of Gaussian 16 at Tue Jun  1 06:15:17 2021.

 ----------------------------------------------------------------------
 #N Geom=AllCheck Guess=TCheck SCRF=Check GenChk RB3LYP/6-31G(2df,p) Fr
 eq
 ----------------------------------------------------------------------

 Structure from the checkpoint file:  "CNpCNdNNpNCtN.chk"
 -------------------
 Title Card Required
 -------------------
 Charge =  0 Multiplicity = 1

                         Standard orientation:
 ---------------------------------------------------------------------
 Center     Atomic      Atomic             Coordinates (Angstroms)
 Number     Number       Type             X           Y           Z
 ---------------------------------------------------------------------
      1          6           0       -0.430439    1.573463    0.079333
      2          7           0       -0.639526    0.133497   -0.032444
      3          6           0        0.466730   -0.667581    0.489298
      4          7           0        1.635546   -0.481171   -0.362079
      5          7           0        2.640714   -0.151049    0.302446
      6          7           0        3.729816    0.072485   -0.457032
      7          7           0       -1.833295   -0.276162    0.614316
      8          6           0       -2.940450   -0.279030   -0.145218
      9          7           0       -3.909954   -0.327189   -0.781698
     10          1           0        0.492651    1.834162   -0.441333
     11          1           0       -0.347609    1.909647    1.129297
     12          1           0       -1.263281    2.094411   -0.398588
     13          1           0        0.152260   -1.713404    0.423965
     14          1           0        0.708494   -0.426056    1.541587
     15          1           0        4.588844   -0.028270    0.060613
     16          1           0        3.702682   -0.321918   -1.393999
     17          1           0       -1.972177    0.097438    1.553419
 ---------------------------------------------------------------------

 SCF Done:  E(RB3LYP) =  -447.538096422     A.U. after    1 cycles

 The electronic state is 1-A.
 Alpha  occ. eigenvalues --  -14.42389 -14.40757 -14.38402 -14.37907 -14.36428
 Alpha  occ. eigenvalues --  -14.31270 -10.24513 -10.23532 -10.21831  -1.07990
 Alpha  occ. eigenvalues --   -1.02812  -0.91831  -0.89125  -0.84273  -0.74088
 Alpha  occ. eigenvalues --   -0.68017  -0.61533  -0.59778  -0.55393  -0.53875
 Alpha  occ. eigenvalues --   -0.50972  -0.48356  -0.45518  -0.43514  -0.41305
 Alpha  occ. eigenvalues --   -0.39732  -0.38268  -0.37648  -0.34942  -0.32341
 Alpha  occ. eigenvalues --   -0.27185  -0.26188  -0.25950  -0.25086
 Alpha virt. eigenvalues --   -0.03377   0.03071   0.05910   0.07346   0.08547
 Alpha virt. eigenvalues --    0.11400   0.12647   0.13752   0.14086   0.15778
 Alpha virt. eigenvalues --    0.16931   0.17516   0.17888   0.20620   0.21647

 Mulliken charges:
               1
     1  C   -0.331984
     2  N   -0.072921
     3  C   -0.055183
     4  N   -0.178751
     5  N   -0.047615
     6  N   -0.370051
     7  N   -0.355717
     8  C    0.360188
     9  N   -0.334910
    10  H    0.151397
    11  H    0.098541
    12  H    0.146621
    13  H    0.130139
    14  H    0.085332
    15  H    0.270423
    16  H    0.250645
    17  H    0.253845
 Sum of Mulliken charges =  -0.00000

 Dipole moment (field-independent basis, Debye):
    X=              5.6835    Y=              0.8115    Z=              2.6352  Tot=              6.3171
 Quadrupole moment (field-independent basis, Debye-Ang):
   XX=            -57.1028   YY=            -51.5607   ZZ=            -52.0979
   XY=             -5.3874   XZ=            -11.0172   YZ=             -0.1769

  Exact polarizability: 117.979   6.287  54.912   2.252   0.585  61.135
 Approx polarizability: 159.508  14.102  80.389  13.256   1.703  99.371

                      1                      2                      3
                      A                      A                      A
 Frequencies --     45.2793                53.4635                88.2426
 Red. masses --      5.5546                 5.7951                 4.0894
 Frc consts  --      0.0067                 0.0098                 0.0188
 IR Inten    --      3.9384                 0.9580                 5.9531

                      4                      5                      6
                      A                      A                      A
 Frequencies --    151.0060               209.3242               256.7441
 Red. masses --      3.5209                 3.5397                 1.1431
 Frc consts  --      0.0473                 0.0914                 0.0444
 IR Inten    --      4.3816                 6.8329                 1.7157

                      7                      8                      9
                      A                      A                      A
 Frequencies --    317.1536               351.5550               369.7440
 Red. masses --      3.7505                 3.8335                 3.0448
 Frc consts  --      0.2223                 0.2791                 0.2453
 IR Inten    --      3.9719                 9.5619                 7.9135

                     10                     11                     12
                      A                      A                      A
 Frequencies --    391.2621               443.6271               508.3027
 Red. masses --      2.1280                 3.1882                 1.5163
 Frc consts  --      0.1919                 0.3697                 0.2308
 IR Inten    --     20.6554                10.8173               173.0546

                     13                     14                     15
                      A                      A                      A
 Frequencies --    516.6186               602.3322               615.4121
 Red. masses --      2.3609                 4.1085                 1.8312
 Frc consts  --      0.3713                 0.8782                 0.4086
 IR Inten    --     67.9438                73.7755                73.8620

                     16                     17                     18
                      A                      A                      A
 Frequencies --    671.1360               695.8408               890.8190
 Red. masses --      2.8086                 2.5941                 3.6923
 Frc consts  --      0.7453                 0.7400                 1.7264
 IR Inten    --     11.8781                36.2290                53.5242

                     19                     20                     21
                      A                      A                      A
 Frequencies --   1009.4659              1025.1726              1100.5521
 Red. masses --      2.7367                 2.1643                 2.2298
 Frc consts  --      1.6431                 1.3402                 1.5913
 IR Inten    --      2.5570                43.6734                11.7693

                     22                     23                     24
                      A                      A                      A
 Frequencies --   1137.0575              1143.6339              1178.1120
 Red. masses --      2.3902                 2.0583                 2.4680
 Frc consts  --      1.8208                 1.5861                 2.0182
 IR Inten    --     12.0525                34.1305                 1.8482

                     25                     26                     27
                      A                      A                      A
 Frequencies --   1197.2350              1263.0352              1288.9934
 Red. masses --      2.7476                 2.7255                 1.3961
 Frc consts  --      2.3204                 2.5617                 1.3667
 IR Inten    --     49.3706                 5.0321                 5.0165

                     28                     29                     30
                      A                      A                      A
 Frequencies --   1313.6399              1394.5175              1440.5648
 Red. masses --      1.8872                 1.3251                 1.1819
 Frc consts  --      1.9188                 1.5183                 1.4451
 IR Inten    --     69.2033                23.9735                 0.9320

                     31                     32                     33
                      A                      A                      A
 Frequencies --   1473.3323              1487.1410              1493.1420
 Red. masses --      1.1981                 1.0749                 1.0515
 Frc consts  --      1.5323                 1.4006                 1.3813
 IR Inten    --      9.5608                 2.1480                 4.6215

                     34                     35                     36
                      A                      A                      A
 Frequencies --   1506.1572              1606.4389              1628.6656
 Red. masses --      1.1279                 3.0046                 1.4692
 Frc consts  --      1.5075                 4.5684                 2.2962
 IR Inten    --     12.0612               166.1237                10.2730

                     37                     38                     39
                      A                      A                      A
 Frequencies --   2348.5230              2925.6163              2944.0340
 Red. masses --     12.3860                 1.0692                 1.0583
 Frc consts  --     40.2503                 5.3920                 5.4045
 IR Inten    --    121.0984                46.9428                67.7291

                     40                     41                     42
                      A                      A                      A
 Frequencies --   3080.8262              3094.8392              3144.4428
 Red. masses --      1.0908                 1.0738                 1.1035
 Frc consts  --      6.1002                 6.0598                 6.4283
 IR Inten    --     12.3453                13.4386                 9.2694

                     43                     44                     45
                      A                      A                      A
 Frequencies --   3433.2583              3477.6166              3675.1481
 Red. masses --      1.0730                 1.0486                 1.0962
 Frc consts  --      7.4520                 7.4718                 8.7231
 IR Inten    --     16.3717                 9.3142                46.1125

 - Thermochemistry -
 -------------------
 Temperature   298.150 Kelvin.  Pressure   1.00000 Atm.
 Atom     1 has atomic number  6 and mass  12.00000

 Molecular mass:   128.08104 amu.
 Principal axes and moments of inertia in atomic units:
                           1         2         3
     Eigenvalues --   316.643032779.148872870.10343
           X            0.99994  -0.00628  -0.00937
           Y            0.00622   0.99996  -0.00647
           Z            0.00941   0.00642   0.99994
 This molecule is an asymmetric top.
 Rotational symmetry number  1.
 Rotational temperatures (Kelvin)      0.27354     0.03117     0.03018
 Rotational constants (GHZ):           5.69961     0.64939     0.62881
 Zero-point vibrational energy     352832.7 (Joules/Mol)
                                   84.32904 (Kcal/Mol)
 Warning -- explicit consideration of  15 degrees of freedom as
           vibrations may cause significant error
 Vibrational temperatures:     65.15    76.92   126.96   217.26   301.17
          (Kelvin)            369.40   456.31   505.81   531.98   562.94
                              638.28   731.33   743.30   866.62   885.44
                              965.62  1001.16  1281.69  1452.40  1474.99
                             1583.45  1635.97  1645.43  1695.04  1722.55
                             1817.23  1854.57  1890.03  2006.40  2072.65
                             2119.80  2139.66  2148.30  2167.02  2311.31
                             2343.29  3379.00  4209.31  4235.81  4432.62
                             4452.78  4524.15  4939.69  5003.51  5287.72

 Zero-point correction=                           0.134387 (Hartree/Particle)
 Thermal correction to Energy=                    0.144283
 Thermal correction to Enthalpy=                  0.145227
 Thermal correction to Gibbs Free Energy=         0.098440
 Sum of electronic and zero-point Energies=           -447.403710
 Sum of electronic and thermal Energies=              -447.393813
 Sum of electronic and thermal Enthalpies=            -447.392869
 Sum of electronic and thermal Free Energies=         -447.439656

                     E (Thermal)             CV                S
                      KCal/Mol        Cal/Mol-Kelvin    Cal/Mol-Kelvin
 Total                   90.539             34.665             98.472
 Electronic               0.000              0.000              0.000
 Translational            0.889              2.981             40.456
 Rotational               0.889              2.981             29.314
 Vibrational             88.762             28.703             28.702
 Vibration     1          0.595              1.979              5.014
 Vibration     2          0.596              1.976              4.685
 Vibration     3          0.601              1.957              3.699
 Vibration     4          0.618              1.902              2.660
 Vibration     5          0.642              1.827              2.050
 Vibration     6          0.666              1.751              1.684
 Vibration     7          0.704              1.641              1.325
 Vibration     8          0.728              1.572              1.159
 Vibration     9          0.742              1.534              1.081
 Vibration    10          0.759              1.489              0.995
 Vibration    11          0.803              1.375              0.815
 Vibration    12          0.863              1.232              0.638
 Vibration    13          0.872              1.213              0.618
 Vibration    14          0.961              1.027              0.446
 Vibration    15          0.975              0.999              0.424

 Optimization completed.
    -- Stationary point found.
 Normal termination of Gaussian 16 at Tue Jun  1 06:36:58 2021.
