 Gaussian 16, Revision A.03,
 Gaussian 16:  ES64L-G16RevA.03 25-Dec-2016

 -----------------------------
 # opt freq b3lyp/6-31g(2df,p)
 -----------------------------

 -------------------
 Title Card Required
 -------------------
 Symbolic Z-matrix:
 Charge =  0 Multiplicity = 1

 SCF Done:  E(RB3LYP) =  -436.603863990     A.U. after   14 cycles
 SCF Done:  E(RB3LYP) =  -436.607540602     A.U. after   11 cycles
 SCF Done:  E(RB3LYP) =  -436.608180606     A.U. after   10 cycles
 SCF Done:  E(RB3LYP) =  -436.608220052     A.U. after    9 cycles
 SCF Done:  E(RB3LYP) =  -436.608223202     A.U. after    7 cycles
 SCF Done:  E(RB3LYP) =  -436.608223521     A.U. after    6 cycles
 Optimization completed.
    -- Stationary point found.
 Normal termination of Gaussian 16 at Mon May 31 20:01:07 2021.

 ----------------------------------------------------------------------
 #N Geom=AllCheck Guess=TCheck SCRF=Check GenChk RB3LYP/6-31G(2df,p) Fr
 eq
 ----------------------------------------------------------------------

 Structure from the checkpoint file:  "CNpCdOpCCCNdN.chk"
 -------------------
 Title Card Required
 -------------------
 Charge =  0 Multiplicity = 1

                         Standard orientation:
 ---------------------------------------------------------------------
 Center     Atomic      Atomic             Coordinates (Angstroms)
 Number     Number       Type             X           Y           Z
 ---------------------------------------------------------------------
      1          6           0       -2.784716   -1.314097   -0.000004
      2          7           0       -1.739697   -0.304798    0.000004
      3          6           0       -2.091354    1.013134    0.000012
      4          8           0       -3.233356    1.430623   -0.000013
      5          6           0       -0.374653   -0.814255    0.000002
      6          6           0        0.746214    0.224835    0.000009
      7          6           0        2.111102   -0.459652    0.000003
      8          7           0        3.182419    0.563517    0.000009
      9          7           0        4.313381    0.058006   -0.000023
     10          1           0       -3.746561   -0.802971   -0.000003
     11          1           0       -2.708070   -1.952829    0.888827
     12          1           0       -2.708067   -1.952819   -0.888842
     13          1           0       -1.221839    1.688895   -0.000006
     14          1           0       -0.252540   -1.467806   -0.877855
     15          1           0       -0.252541   -1.467815    0.877853
     16          1           0        0.677581    0.873236    0.880002
     17          1           0        0.677580    0.873248   -0.879975
     18          1           0        2.241214   -1.098446   -0.882141
     19          1           0        2.241214   -1.098458    0.882140
     20          1           0        4.986601    0.843915    0.000031
 ---------------------------------------------------------------------

 SCF Done:  E(RB3LYP) =  -436.608223521     A.U. after    1 cycles

 The electronic state is 1-A.
 Alpha  occ. eigenvalues --  -19.09845 -14.39370 -14.38161 -14.36187 -10.26941
 Alpha  occ. eigenvalues --  -10.23750 -10.22418 -10.21362 -10.20492  -1.03795
 Alpha  occ. eigenvalues --   -1.02622  -0.93793  -0.81878  -0.74417  -0.70816
 Alpha  occ. eigenvalues --   -0.65902  -0.59845  -0.55489  -0.52190  -0.50832
 Alpha  occ. eigenvalues --   -0.49000  -0.46901  -0.46153  -0.43239  -0.42385
 Alpha  occ. eigenvalues --   -0.40441  -0.39448  -0.37799  -0.37630  -0.37053
 Alpha  occ. eigenvalues --   -0.36794  -0.34625  -0.24624  -0.24145  -0.23798
 Alpha virt. eigenvalues --   -0.05528   0.03121   0.07244   0.09669   0.10306
 Alpha virt. eigenvalues --    0.11438   0.11979   0.13679   0.14697   0.16033
 Alpha virt. eigenvalues --    0.16337   0.17797   0.18041   0.19275   0.20656

 Mulliken charges:
               1
     1  C   -0.342507
     2  N   -0.062197
     3  C    0.150057
     4  O   -0.350224
     5  C   -0.123921
     6  C   -0.236921
     7  C   -0.109678
     8  N   -0.129813
     9  N   -0.266182
    10  H    0.170940
    11  H    0.122174
    12  H    0.122175
    13  H    0.082906
    14  H    0.109511
    15  H    0.109510
    16  H    0.125859
    17  H    0.125859
    18  H    0.126853
    19  H    0.126855
    20  H    0.248743
 Sum of Mulliken charges =   0.00000

 Dipole moment (field-independent basis, Debye):
    X=              2.7144    Y=             -2.3730    Z=              0.0001  Tot=              3.6054
 Quadrupole moment (field-independent basis, Debye-Ang):
   XX=            -65.6317   YY=            -56.2192   ZZ=            -53.0366
   XY=             11.8529   XZ=              0.0002   YZ=             -0.0000

  Exact polarizability: 108.369   0.624  78.196   0.000   0.000  55.075
 Approx polarizability: 137.066  -9.825 118.352  -0.000   0.000  85.831

 ******    1 imaginary frequencies (negative Signs) ******

                      1                      2                      3
                      A                      A                      A
 Frequencies --   -121.8755                41.6355                91.2286
 Red. masses --      7.9922                 2.5422                 2.3941
 Frc consts  --      0.0699                 0.0026                 0.0117
 IR Inten    --      1.0740                 0.6855                 0.4765

                      4                      5                      6
                      A                      A                      A
 Frequencies --     97.1873               104.3082               141.7541
 Red. masses --      5.0885                 2.3180                 1.1991
 Frc consts  --      0.0283                 0.0149                 0.0142
 IR Inten    --      1.4461                 1.0264                 0.1266

                      7                      8                      9
                      A                      A                      A
 Frequencies --    212.1411               245.1305               298.6528
 Red. masses --      2.2661                 5.5136                 3.8698
 Frc consts  --      0.0601                 0.1952                 0.2034
 IR Inten    --      0.0781                 2.0717                 0.0963

                     10                     11                     12
                      A                      A                      A
 Frequencies --    335.2081               358.9990               449.2306
 Red. masses --      2.3552                 4.8098                 3.3958
 Frc consts  --      0.1559                 0.3652                 0.4038
 IR Inten    --     15.5121                12.0639                 0.9099

                     13                     14                     15
                      A                      A                      A
 Frequencies --    582.3943               699.9615               721.4375
 Red. masses --      4.1262                 4.7703                 1.0978
 Frc consts  --      0.8246                 1.3770                 0.3366
 IR Inten    --     22.4258                 0.1676                12.9173

                     16                     17                     18
                      A                      A                      A
 Frequencies --    803.8936               879.5165               946.2570
 Red. masses --      1.1554                 4.0219                 1.1308
 Frc consts  --      0.4399                 1.8330                 0.5966
 IR Inten    --      4.0142                11.3695                17.3398

                     19                     20                     21
                      A                      A                      A
 Frequencies --    950.6897              1023.2686              1043.1879
 Red. masses --      4.5600                 1.6153                 2.5138
 Frc consts  --      2.4282                 0.9965                 1.6118
 IR Inten    --      3.4003                 0.0344                12.2527

                     22                     23                     24
                      A                      A                      A
 Frequencies --   1087.3978              1109.0243              1141.7318
 Red. masses --      3.0773                 1.9922                 1.4179
 Frc consts  --      2.1439                 1.4436                 1.0890
 IR Inten    --     13.5470                50.0673                 3.9617

                     25                     26                     27
                      A                      A                      A
 Frequencies --   1167.4678              1221.9893              1249.4963
 Red. masses --      1.4330                 1.2263                 2.6060
 Frc consts  --      1.1507                 1.0789                 2.3972
 IR Inten    --     13.8534                 1.2158                65.5440

                     28                     29                     30
                      A                      A                      A
 Frequencies --   1268.5896              1314.1609              1325.3304
 Red. masses --      1.7187                 1.1335                 1.0659
 Frc consts  --      1.6297                 1.1534                 1.1031
 IR Inten    --     39.9753                 0.2853                 0.6130

                     31                     32                     33
                      A                      A                      A
 Frequencies --   1352.2539              1394.2520              1432.3177
 Red. masses --      1.7960                 1.6873                 1.2146
 Frc consts  --      1.9350                 1.9326                 1.4681
 IR Inten    --     38.8260                57.0370                14.9766

                     34                     35                     36
                      A                      A                      A
 Frequencies --   1450.3407              1453.0775              1465.2066
 Red. masses --      1.2095                 1.1534                 1.4589
 Frc consts  --      1.4990                 1.4349                 1.8453
 IR Inten    --      0.9958                14.6633                22.5745

                     37                     38                     39
                      A                      A                      A
 Frequencies --   1490.5482              1499.0134              1499.6946
 Red. masses --      1.2783                 1.0428                 1.0889
 Frc consts  --      1.6733                 1.3806                 1.4429
 IR Inten    --     21.3743                 8.8530                 3.4650

                     40                     41                     42
                      A                      A                      A
 Frequencies --   1509.8366              1544.3427              1661.2538
 Red. masses --      1.1112                 1.2571                10.6440
 Frc consts  --      1.4924                 1.7665                17.3072
 IR Inten    --      5.6629                 9.0718                 3.4436

                     43                     44                     45
                      A                      A                      A
 Frequencies --   1781.6793              2976.0513              2995.2611
 Red. masses --      7.8977                 1.0569                 1.1034
 Frc consts  --     14.7711                 5.5153                 5.8327
 IR Inten    --    399.6234                40.5563                29.4547

                     46                     47                     48
                      A                      A                      A
 Frequencies --   3008.2667              3016.0391              3024.2604
 Red. masses --      1.0752                 1.0455                 1.0574
 Frc consts  --      5.7327                 5.6034                 5.6981
 IR Inten    --     90.2188                27.3747                11.1374

                     49                     50                     51
                      A                      A                      A
 Frequencies --   3047.1780              3062.2377              3066.9876
 Red. masses --      1.0596                 1.1032                 1.1035
 Frc consts  --      5.7968                 6.0949                 6.1160
 IR Inten    --     27.1013                30.7258                 2.6425

                     52                     53                     54
                      A                      A                      A
 Frequencies --   3095.8491              3163.7359              3253.3925
 Red. masses --      1.1059                 1.0959                 1.0741
 Frc consts  --      6.2448                 6.4630                 6.6986
 IR Inten    --     30.8350                 1.1390                27.2397

 - Thermochemistry -
 -------------------
 Temperature   298.150 Kelvin.  Pressure   1.00000 Atm.
 Atom     1 has atomic number  6 and mass  12.00000

 Molecular mass:   129.09021 amu.
 Principal axes and moments of inertia in atomic units:
                           1         2         3
     Eigenvalues --   388.341133187.143033530.66634
           X            0.99987   0.01608   0.00000
           Y           -0.01608   0.99987   0.00000
           Z           -0.00000  -0.00000   1.00000
 This molecule is an asymmetric top.
 Rotational symmetry number  1.
 Rotational temperatures (Kelvin)      0.22304     0.02718     0.02453
 Rotational constants (GHZ):           4.64731     0.56626     0.51116
    1 imaginary frequencies ignored.
 Zero-point vibrational energy     443541.5 (Joules/Mol)
                                  106.00896 (Kcal/Mol)
 Warning -- explicit consideration of  12 degrees of freedom as
           vibrations may cause significant error
 Vibrational temperatures:     59.90   131.26   139.83   150.08   203.95
          (Kelvin)            305.22   352.69   429.69   482.29   516.52
                              646.34   837.94  1007.09  1037.99  1156.62
                             1265.43  1361.45  1367.83  1472.26  1500.91
                             1564.52  1595.64  1642.70  1679.73  1758.17
                             1797.75  1825.22  1890.78  1906.85  1945.59
                             2006.02  2060.79  2086.72  2090.65  2108.11
                             2144.57  2156.75  2157.73  2172.32  2221.96
                             2390.17  2563.44  4281.87  4309.51  4328.22
                             4339.41  4351.24  4384.21  4405.88  4412.71
                             4454.24  4551.91  4680.91

 Zero-point correction=                           0.168936 (Hartree/Particle)
 Thermal correction to Energy=                    0.178847
 Thermal correction to Enthalpy=                  0.179791
 Thermal correction to Gibbs Free Energy=         0.132492
 Sum of electronic and zero-point Energies=           -436.439287
 Sum of electronic and thermal Energies=              -436.429377
 Sum of electronic and thermal Enthalpies=            -436.428433
 Sum of electronic and thermal Free Energies=         -436.475732

                     E (Thermal)             CV                S
                      KCal/Mol        Cal/Mol-Kelvin    Cal/Mol-Kelvin
 Total                  112.228             33.787             99.549
 Electronic               0.000              0.000              0.000
 Translational            0.889              2.981             40.479
 Rotational               0.889              2.981             29.859
 Vibrational            110.451             27.825             29.211
 Vibration     1          0.594              1.981              5.180
 Vibration     2          0.602              1.955              3.634
 Vibration     3          0.603              1.951              3.510
 Vibration     4          0.605              1.946              3.372
 Vibration     5          0.615              1.911              2.780
 Vibration     6          0.643              1.822              2.025
 Vibration     7          0.660              1.771              1.765
 Vibration     8          0.692              1.676              1.424
 Vibration     9          0.716              1.605              1.235
 Vibration    10          0.734              1.557              1.126
 Vibration    11          0.808              1.363              0.798
 Vibration    12          0.939              1.069              0.481

 Optimization completed.
    -- Stationary point found.
 Normal termination of Gaussian 16 at Mon May 31 20:24:14 2021.
