 Gaussian 16, Revision A.03,
 Gaussian 16:  ES64L-G16RevA.03 25-Dec-2016

 -----------------------------
 # opt freq b3lyp/6-31g(2df,p)
 -----------------------------

 -------------------
 Title Card Required
 -------------------
 Symbolic Z-matrix:
 Charge =  0 Multiplicity = 1

 SCF Done:  E(RB3LYP) =  -528.569366610     A.U. after   13 cycles
 SCF Done:  E(RB3LYP) =  -528.577910164     A.U. after   13 cycles
 SCF Done:  E(RB3LYP) =  -528.579951753     A.U. after   13 cycles
 SCF Done:  E(RB3LYP) =  -528.581651626     A.U. after   13 cycles
 SCF Done:  E(RB3LYP) =  -528.583602958     A.U. after   13 cycles
 SCF Done:  E(RB3LYP) =  -528.586270313     A.U. after   14 cycles
 SCF Done:  E(RB3LYP) =  -528.588155797     A.U. after   15 cycles
 SCF Done:  E(RB3LYP) =  -528.588883287     A.U. after   12 cycles
 SCF Done:  E(RB3LYP) =  -528.586573564     A.U. after   13 cycles
 SCF Done:  E(RB3LYP) =  -528.589627271     A.U. after   12 cycles
 SCF Done:  E(RB3LYP) =  -528.589715703     A.U. after   12 cycles
 SCF Done:  E(RB3LYP) =  -528.589754525     A.U. after   12 cycles
 SCF Done:  E(RB3LYP) =  -528.589763893     A.U. after   10 cycles
 SCF Done:  E(RB3LYP) =  -528.589766328     A.U. after   10 cycles
 SCF Done:  E(RB3LYP) =  -528.589766935     A.U. after    8 cycles
 SCF Done:  E(RB3LYP) =  -528.589767346     A.U. after    9 cycles
 SCF Done:  E(RB3LYP) =  -528.589767408     A.U. after    8 cycles
 SCF Done:  E(RB3LYP) =  -528.589767434     A.U. after    7 cycles
 Optimization completed.
    -- Stationary point found.
 Normal termination of Gaussian 16 at Tue Jun  1 11:48:47 2021.

 ----------------------------------------------------------------------
 #N Geom=AllCheck Guess=TCheck SCRF=Check GenChk RB3LYP/6-31G(2df,p) Fr
 eq
 ----------------------------------------------------------------------

 Structure from the checkpoint file:  "CNpCCNCNdNpNCN.chk"
 -------------------
 Title Card Required
 -------------------
 Charge =  0 Multiplicity = 1

                         Standard orientation:
 ---------------------------------------------------------------------
 Center     Atomic      Atomic             Coordinates (Angstroms)
 Number     Number       Type             X           Y           Z
 ---------------------------------------------------------------------
      1          6           0        1.741324    1.904627   -0.156687
      2          7           0        1.574442    0.474450    0.075026
      3          6           0        0.330111   -0.053993   -0.479046
      4          6           0       -0.896670    0.353014    0.340200
      5          7           0       -2.088163   -0.292088   -0.198364
      6          6           0       -3.300574    0.062967    0.508147
      7          7           0       -4.396774   -0.751610   -0.035574
      8          7           0       -5.438867   -0.102743   -0.204448
      9          7           0        2.673383   -0.281191   -0.419654
     10          6           0        3.762347   -0.370230    0.545183
     11          7           0        4.834227   -1.119011   -0.094305
     12          1           0        0.925653    2.465277    0.308021
     13          1           0        1.760931    2.157533   -1.234299
     14          1           0        2.675610    2.246466    0.296111
     15          1           0        0.428408   -1.143168   -0.466237
     16          1           0        0.176945    0.244880   -1.532259
     17          1           0       -1.055188    1.437117    0.283871
     18          1           0       -0.708800    0.116541    1.403521
     19          1           0       -1.983218   -1.302460   -0.170581
     20          1           0       -3.510295    1.134165    0.396156
     21          1           0       -3.271033   -0.169049    1.592310
     22          1           0       -6.145030   -0.768557   -0.566058
     23          1           0        3.039713    0.117009   -1.288416
     24          1           0        3.339370   -0.824828    1.454210
     25          1           0        4.178249    0.610099    0.837884
     26          1           0        4.554849   -2.089056   -0.203965
     27          1           0        5.666885   -1.104939    0.484183
 ---------------------------------------------------------------------

 SCF Done:  E(RB3LYP) =  -528.589767434     A.U. after    1 cycles

 The electronic state is 1-A.
 Alpha  occ. eigenvalues --  -14.38343 -14.37398 -14.34191 -14.33046 -14.31668
 Alpha  occ. eigenvalues --  -14.30927 -10.23078 -10.22450 -10.20483 -10.20082
 Alpha  occ. eigenvalues --  -10.19787  -1.03075  -0.97506  -0.90980  -0.88373
 Alpha  occ. eigenvalues --   -0.79916  -0.75469  -0.70815  -0.66117  -0.61684
 Alpha  occ. eigenvalues --   -0.59995  -0.58134  -0.50950  -0.50742  -0.50184
 Alpha  occ. eigenvalues --   -0.47907  -0.46699  -0.45629  -0.43800  -0.43405
 Alpha  occ. eigenvalues --   -0.42278  -0.40256  -0.39782  -0.38765  -0.38510
 Alpha  occ. eigenvalues --   -0.37476  -0.35742  -0.34855  -0.33793  -0.24411
 Alpha  occ. eigenvalues --   -0.23434  -0.22900  -0.22605  -0.21943
 Alpha virt. eigenvalues --   -0.04155   0.08061   0.08987   0.09443   0.10740
 Alpha virt. eigenvalues --    0.11272   0.12804   0.13666   0.14000   0.15322
 Alpha virt. eigenvalues --    0.15770   0.16179   0.17158   0.17720   0.18049

 Mulliken charges:
               1
     1  C   -0.324383
     2  N   -0.070128
     3  C   -0.120894
     4  C   -0.146114
     5  N   -0.297063
     6  C   -0.040857
     7  N   -0.124680
     8  N   -0.270866
     9  N   -0.258482
    10  C   -0.066901
    11  N   -0.514452
    12  H    0.125649
    13  H    0.094051
    14  H    0.123728
    15  H    0.103797
    16  H    0.085657
    17  H    0.102868
    18  H    0.087501
    19  H    0.221874
    20  H    0.113947
    21  H    0.094353
    22  H    0.244928
    23  H    0.205021
    24  H    0.092570
    25  H    0.079347
    26  H    0.230751
    27  H    0.228776
 Sum of Mulliken charges =  -0.00000

 Dipole moment (field-independent basis, Debye):
    X=              1.0976    Y=             -0.2553    Z=              1.2535  Tot=              1.6855
 Quadrupole moment (field-independent basis, Debye-Ang):
   XX=            -64.0861   YY=            -64.7365   ZZ=            -69.3098
   XY=              2.3457   XZ=              3.6492   YZ=             -1.3012

  Exact polarizability: 142.334  -2.112  89.834   5.192   1.745  80.559
 Approx polarizability: 161.689  -5.309 133.237   7.010   2.573 125.133

                      1                      2                      3
                      A                      A                      A
 Frequencies --     32.0836                33.2490                60.5747
 Red. masses --      3.6404                 2.9662                 3.9728
 Frc consts  --      0.0022                 0.0019                 0.0086
 IR Inten    --      0.1653                 0.8177                 0.1475

                      4                      5                      6
                      A                      A                      A
 Frequencies --     80.7262                97.1133               116.3788
 Red. masses --      2.9731                 3.0916                 2.3148
 Frc consts  --      0.0114                 0.0172                 0.0185
 IR Inten    --      0.6025                 3.5602                 1.7632

                      7                      8                      9
                      A                      A                      A
 Frequencies --    125.6003               153.4734               184.7900
 Red. masses --      3.1484                 2.3277                 2.7149
 Frc consts  --      0.0293                 0.0323                 0.0546
 IR Inten    --      2.1035                 3.2561                 1.6734

                     10                     11                     12
                      A                      A                      A
 Frequencies --    240.6055               252.3203               274.9014
 Red. masses --      1.2607                 5.7100                 1.2444
 Frc consts  --      0.0430                 0.2142                 0.0554
 IR Inten    --      3.8390                 0.8851                30.3539

                     13                     14                     15
                      A                      A                      A
 Frequencies --    303.4485               360.4287               425.4167
 Red. masses --      2.8029                 2.5412                 2.7977
 Frc consts  --      0.1521                 0.1945                 0.2983
 IR Inten    --     11.0688                 8.2696                 3.5390

                     16                     17                     18
                      A                      A                      A
 Frequencies --    449.0442               492.9927               551.7313
 Red. masses --      3.3341                 3.5613                 3.2240
 Frc consts  --      0.3961                 0.5100                 0.5782
 IR Inten    --      1.3479                 2.7940                13.1113

                     19                     20                     21
                      A                      A                      A
 Frequencies --    592.6389               788.1736               804.5269
 Red. masses --      3.4329                 1.2337                 1.6101
 Frc consts  --      0.7104                 0.4516                 0.6140
 IR Inten    --      4.7752                47.9959                44.7131

                     22                     23                     24
                      A                      A                      A
 Frequencies --    824.6250               852.3584               858.9297
 Red. masses --      1.3601                 1.3170                 1.3630
 Frc consts  --      0.5449                 0.5637                 0.5925
 IR Inten    --     21.3428                59.4772                96.5378

                     25                     26                     27
                      A                      A                      A
 Frequencies --    918.3547               969.5570               982.8257
 Red. masses --      2.1939                 1.5191                 2.8906
 Frc consts  --      1.0902                 0.8414                 1.6451
 IR Inten    --     60.5700                 5.0404                15.0772

                     28                     29                     30
                      A                      A                      A
 Frequencies --   1054.6053              1062.5732              1078.3065
 Red. masses --      2.1486                 1.8466                 1.9733
 Frc consts  --      1.4080                 1.2284                 1.3518
 IR Inten    --     19.8695                 9.2133                10.9796

                     31                     32                     33
                      A                      A                      A
 Frequencies --   1087.4237              1105.9119              1120.8097
 Red. masses --      2.3328                 2.6640                 1.7280
 Frc consts  --      1.6253                 1.9197                 1.2789
 IR Inten    --     18.2079                34.9274                 8.9412

                     34                     35                     36
                      A                      A                      A
 Frequencies --   1137.5392              1165.6231              1184.1174
 Red. masses --      1.7195                 3.0110                 1.9428
 Frc consts  --      1.3109                 2.4103                 1.6050
 IR Inten    --     22.4439                67.7341                13.8831

                     37                     38                     39
                      A                      A                      A
 Frequencies --   1206.0713              1209.3302              1242.9224
 Red. masses --      1.9388                 1.3380                 1.6159
 Frc consts  --      1.6616                 1.1529                 1.4708
 IR Inten    --      9.0495                16.7555                12.2416

                     40                     41                     42
                      A                      A                      A
 Frequencies --   1277.1165              1287.4409              1314.8849
 Red. masses --      1.5133                 1.8188                 1.1615
 Frc consts  --      1.4542                 1.7762                 1.1831
 IR Inten    --     12.5613                 3.8640                 4.3657

                     43                     44                     45
                      A                      A                      A
 Frequencies --   1321.4904              1327.7884              1379.4871
 Red. masses --      1.2931                 1.2937                 1.3455
 Frc consts  --      1.3305                 1.3438                 1.5086
 IR Inten    --      3.0294                26.8783                 9.7672

                     46                     47                     48
                      A                      A                      A
 Frequencies --   1418.3102              1423.5285              1455.1006
 Red. masses --      1.2560                 1.4509                 1.2106
 Frc consts  --      1.4886                 1.7323                 1.5101
 IR Inten    --     21.9732                 2.5616                11.1241

                     49                     50                     51
                      A                      A                      A
 Frequencies --   1481.5241              1487.7607              1491.8602
 Red. masses --      1.1673                 1.1748                 1.0965
 Frc consts  --      1.5095                 1.5321                 1.4379
 IR Inten    --      2.7400                17.4120                22.1700

                     52                     53                     54
                      A                      A                      A
 Frequencies --   1493.9913              1497.8448              1500.3560
 Red. masses --      1.2093                 1.0856                 1.1550
 Frc consts  --      1.5903                 1.4349                 1.5318
 IR Inten    --     46.6479                 1.2241                 6.8588

                     55                     56                     57
                      A                      A                      A
 Frequencies --   1511.4294              1524.8824              1538.5206
 Red. masses --      1.1546                 1.0899                 1.0835
 Frc consts  --      1.5540                 1.4932                 1.5111
 IR Inten    --     14.3547                 4.1815                 1.5722

                     58                     59                     60
                      A                      A                      A
 Frequencies --   1644.9536              1666.8509              2895.8409
 Red. masses --      1.0999                10.3394                 1.0692
 Frc consts  --      1.7535                16.9254                 5.2828
 IR Inten    --     27.7243                 3.1144                67.4276

                     61                     62                     63
                      A                      A                      A
 Frequencies --   2925.4071              2933.1164              2941.8309
 Red. masses --      1.0609                 1.0710                 1.0659
 Frc consts  --      5.3491                 5.4285                 5.4352
 IR Inten    --     53.8430                 0.8662                74.7817

                     64                     65                     66
                      A                      A                      A
 Frequencies --   2946.3494              2987.0307              3038.1801
 Red. masses --      1.0712                 1.0938                 1.0872
 Frc consts  --      5.4790                 5.7502                 5.9127
 IR Inten    --    136.2625                64.0493                 5.1868

                     67                     68                     69
                      A                      A                      A
 Frequencies --   3042.7620              3077.6959              3085.6757
 Red. masses --      1.0880                 1.0709                 1.0894
 Frc consts  --      5.9347                 5.9768                 6.1113
 IR Inten    --     35.2949                29.3625                31.8088

                     70                     71                     72
                      A                      A                      A
 Frequencies --   3117.0330              3240.7581              3389.6616
 Red. masses --      1.1026                 1.0738                 1.0730
 Frc consts  --      6.3119                 6.6446                 7.2635
 IR Inten    --     30.3829                34.6063                 8.7659

                     73                     74                     75
                      A                      A                      A
 Frequencies --   3503.0761              3507.1766              3590.3778
 Red. masses --      1.0495                 1.0730                 1.0924
 Frc consts  --      7.5879                 7.7761                 8.2968
 IR Inten    --      0.2122                 0.5682                 0.8649

 - Thermochemistry -
 -------------------
 Temperature   298.150 Kelvin.  Pressure   1.00000 Atm.
 Atom     1 has atomic number  6 and mass  12.00000

 Molecular mass:   160.14364 amu.
 Principal axes and moments of inertia in atomic units:
                           1         2         3
     Eigenvalues --   487.753496264.221506543.90672
           X            1.00000  -0.00092   0.00042
           Y            0.00092   0.99997  -0.00748
           Z           -0.00042   0.00748   0.99997
 This molecule is an asymmetric top.
 Rotational symmetry number  1.
 Warning -- assumption of classical behavior for rotation
           may cause significant error
 Rotational temperatures (Kelvin)      0.17758     0.01383     0.01324
 Rotational constants (GHZ):           3.70011     0.28810     0.27579
 Zero-point vibrational energy     626539.3 (Joules/Mol)
                                  149.74649 (Kcal/Mol)
 Warning -- explicit consideration of  19 degrees of freedom as
           vibrations may cause significant error
 Vibrational temperatures:     46.16    47.84    87.15   116.15   139.72
          (Kelvin)            167.44   180.71   220.81   265.87   346.18
                              363.03   395.52   436.59   518.58   612.08
                              646.07   709.31   793.82   852.68  1134.01
                             1157.53  1186.45  1226.35  1235.81  1321.31
                             1394.98  1414.07  1517.34  1528.81  1551.44
                             1564.56  1591.16  1612.60  1636.67  1677.07
                             1703.68  1735.27  1739.96  1788.29  1837.49
                             1852.34  1891.83  1901.33  1910.39  1984.77
                             2040.63  2048.14  2093.57  2131.58  2140.56
                             2146.45  2149.52  2155.06  2158.68  2174.61
                             2193.97  2213.59  2366.72  2398.23  4166.47
                             4209.01  4220.10  4232.64  4239.14  4297.67
                             4371.26  4377.86  4428.12  4439.60  4484.72
                             4662.73  4876.97  5040.15  5046.04  5165.75

 Zero-point correction=                           0.238636 (Hartree/Particle)
 Thermal correction to Energy=                    0.252369
 Thermal correction to Enthalpy=                  0.253313
 Thermal correction to Gibbs Free Energy=         0.196336
 Sum of electronic and zero-point Energies=           -528.351131
 Sum of electronic and thermal Energies=              -528.337399
 Sum of electronic and thermal Enthalpies=            -528.336454
 Sum of electronic and thermal Free Energies=         -528.393432

                     E (Thermal)             CV                S
                      KCal/Mol        Cal/Mol-Kelvin    Cal/Mol-Kelvin
 Total                  158.364             47.393            119.918
 Electronic               0.000              0.000              0.000
 Translational            0.889              2.981             41.122
 Rotational               0.889              2.981             31.370
 Vibrational            156.586             41.432             47.427
 Vibration     1          0.594              1.983              5.696
 Vibration     2          0.594              1.983              5.625
 Vibration     3          0.597              1.973              4.438
 Vibration     4          0.600              1.962              3.873
 Vibration     5          0.603              1.951              3.511
 Vibration     6          0.608              1.936              3.160
 Vibration     7          0.611              1.927              3.012
 Vibration     8          0.619              1.899              2.629
 Vibration     9          0.631              1.861              2.279
 Vibration    10          0.658              1.778              1.798
 Vibration    11          0.664              1.759              1.714
 Vibration    12          0.677              1.720              1.565
 Vibration    13          0.695              1.667              1.398
 Vibration    14          0.735              1.554              1.120
 Vibration    15          0.787              1.415              0.874
 Vibration    16          0.808              1.363              0.799
 Vibration    17          0.849              1.266              0.676
 Vibration    18          0.907              1.136              0.541
 Vibration    19          0.950              1.047              0.462

                           ! Non-Optimized Parameters !
 Normal termination of Gaussian 16 at Tue Jun  1 12:42:52 2021.
