 Gaussian 16, Revision A.03,
 Gaussian 16:  ES64L-G16RevA.03 25-Dec-2016

 -----------------------------
 # opt freq b3lyp/6-31g(2df,p)
 -----------------------------

 -------------------
 Title Card Required
 -------------------
 Symbolic Z-matrix:
 Charge =  0 Multiplicity = 1

 SCF Done:  E(RB3LYP) =  -396.062101634     A.U. after   15 cycles
 SCF Done:  E(RB3LYP) =  -396.067990812     A.U. after   12 cycles
 SCF Done:  E(RB3LYP) =  -396.068726287     A.U. after   11 cycles
 SCF Done:  E(RB3LYP) =  -396.068813217     A.U. after   10 cycles
 SCF Done:  E(RB3LYP) =  -396.068908844     A.U. after   10 cycles
 SCF Done:  E(RB3LYP) =  -396.068874109     A.U. after   10 cycles
 SCF Done:  E(RB3LYP) =  -396.068886981     A.U. after   10 cycles
 SCF Done:  E(RB3LYP) =  -396.068911754     A.U. after   10 cycles
 SCF Done:  E(RB3LYP) =  -396.068913779     A.U. after    9 cycles
 Optimization completed.
    -- Stationary point found.
 Normal termination of Gaussian 16 at Tue Jun  1 20:10:15 2021.

 ----------------------------------------------------------------------
 #N Geom=AllCheck Guess=TCheck SCRF=Check GenChk RB3LYP/6-31G(2df,p) Fr
 eq
 ----------------------------------------------------------------------

 Structure from the checkpoint file:  "CNpCdNpNdCCdO.chk"
 -------------------
 Title Card Required
 -------------------
 Charge =  0 Multiplicity = 1

                         Standard orientation:
 ---------------------------------------------------------------------
 Center     Atomic      Atomic             Coordinates (Angstroms)
 Number     Number       Type             X           Y           Z
 ---------------------------------------------------------------------
      1          6           0        1.848726    1.533946    0.000003
      2          7           0        1.024648    0.329463    0.000000
      3          6           0        1.563474   -0.960275   -0.000003
      4          7           0        2.777170   -1.335060   -0.000004
      5          7           0       -0.290533    0.609446    0.000002
      6          6           0       -1.228359   -0.272411    0.000011
      7          6           0       -2.605841    0.244193   -0.000008
      8          8           0       -3.584852   -0.466862    0.000003
      9          1           0        2.904246    1.267954    0.000005
     10          1           0        1.634962    2.130819    0.889913
     11          1           0        1.634965    2.130822   -0.889906
     12          1           0        0.796596   -1.729174   -0.000005
     13          1           0        3.442229   -0.561899   -0.000002
     14          1           0       -1.115183   -1.355856    0.000015
     15          1           0       -2.666000    1.352568   -0.000046
 ---------------------------------------------------------------------

 SCF Done:  E(RB3LYP) =  -396.068913779     A.U. after    1 cycles

 The electronic state is 1-A.
 Alpha  occ. eigenvalues --  -19.13682 -14.42680 -14.40148 -14.32637 -10.27616
 Alpha  occ. eigenvalues --  -10.26929 -10.24367 -10.23572  -1.05831  -1.04194
 Alpha  occ. eigenvalues --   -0.92661  -0.86284  -0.74242  -0.70671  -0.61628
 Alpha  occ. eigenvalues --   -0.58108  -0.56545  -0.52083  -0.49567  -0.45670
 Alpha  occ. eigenvalues --   -0.44311  -0.43112  -0.42506  -0.41718  -0.38788
 Alpha  occ. eigenvalues --   -0.34430  -0.32922  -0.27889  -0.25575  -0.24752
 Alpha virt. eigenvalues --   -0.07732   0.00844   0.05872   0.06588   0.08930
 Alpha virt. eigenvalues --    0.11114   0.13553   0.15343   0.15595   0.16725
 Alpha virt. eigenvalues --    0.18701   0.21452   0.25496   0.27966   0.28279

 Mulliken charges:
               1
     1  C   -0.320110
     2  N   -0.018066
     3  C    0.165008
     4  N   -0.471316
     5  N   -0.140766
     6  C   -0.100911
     7  C    0.144033
     8  O   -0.269270
     9  H    0.137223
    10  H    0.155526
    11  H    0.155526
    12  H    0.135367
    13  H    0.222438
    14  H    0.122915
    15  H    0.082403
 Sum of Mulliken charges =  -0.00000

 Dipole moment (field-independent basis, Debye):
    X=              2.9590    Y=              2.5385    Z=             -0.0000  Tot=              3.8987
 Quadrupole moment (field-independent basis, Debye-Ang):
   XX=            -59.3685   YY=            -47.7540   ZZ=            -46.4935
   XY=              5.4152   XZ=              0.0001   YZ=             -0.0000

  Exact polarizability: 132.018   0.707  66.998  -0.000  -0.000  37.006
 Approx polarizability: 215.108   8.400 103.402  -0.000  -0.000  57.369

 ******    2 imaginary frequencies (negative Signs) ******

                      1                      2                      3
                      A                      A                      A
 Frequencies --   -184.2457               -71.6255               105.4413
 Red. masses --      1.0986                 1.5323                 4.6518
 Frc consts  --      0.0220                 0.0046                 0.0305
 IR Inten    --      0.1460                 2.0004                 2.4779

                      4                      5                      6
                      A                      A                      A
 Frequencies --    139.2198               147.3923               243.1422
 Red. masses --      6.3983                 2.3435                 3.5390
 Frc consts  --      0.0731                 0.0300                 0.1233
 IR Inten    --      3.0410                 0.3177                 5.0765

                      7                      8                      9
                      A                      A                      A
 Frequencies --    316.5399               395.1266               404.2254
 Red. masses --      4.3623                 3.4818                 4.0961
 Frc consts  --      0.2575                 0.3203                 0.3943
 IR Inten    --     10.3609                22.6994                11.5803

                     10                     11                     12
                      A                      A                      A
 Frequencies --    425.6942               617.2714               655.0882
 Red. masses --      5.6124                 4.0101                 3.6304
 Frc consts  --      0.5992                 0.9002                 0.9179
 IR Inten    --      2.4498                20.2363                 9.1206

                     13                     14                     15
                      A                      A                      A
 Frequencies --    819.5688               837.0797               913.4544
 Red. masses --      2.2113                 4.4080                 1.3797
 Frc consts  --      0.8751                 1.8198                 0.6783
 IR Inten    --     36.5052                11.3457                 6.5654

                     16                     17                     18
                      A                      A                      A
 Frequencies --   1032.8769              1066.0333              1068.4996
 Red. masses --      1.7615                 1.8901                 1.1122
 Frc consts  --      1.1072                 1.2655                 0.7482
 IR Inten    --      0.5192               124.7306                42.7354

                     19                     20                     21
                      A                      A                      A
 Frequencies --   1138.5447              1148.7193              1167.9252
 Red. masses --      2.8289                 1.2982                 1.6974
 Frc consts  --      2.1606                 1.0093                 1.3642
 IR Inten    --    375.4779                 0.5011                10.8840

                     22                     23                     24
                      A                      A                      A
 Frequencies --   1263.9560              1303.0536              1362.7467
 Red. masses --      2.1563                 2.3617                 1.8435
 Frc consts  --      2.0297                 2.3626                 2.0171
 IR Inten    --     55.9352               168.6032                76.1235

                     25                     26                     27
                      A                      A                      A
 Frequencies --   1414.4022              1452.4824              1455.8398
 Red. masses --      1.6465                 1.1747                 1.1696
 Frc consts  --      1.9407                 1.4601                 1.4605
 IR Inten    --     15.7875                 1.7006                 1.9518

                     28                     29                     30
                      A                      A                      A
 Frequencies --   1474.7875              1509.0743              1634.7251
 Red. masses --      1.0387                 1.0583                 7.2759
 Frc consts  --      1.3311                 1.4200                11.4558
 IR Inten    --      7.7237                56.9555               303.5989

                     31                     32                     33
                      A                      A                      A
 Frequencies --   1699.5505              1794.0204              2920.5937
 Red. masses --      7.3976                 9.8993                 1.0848
 Frc consts  --     12.5896                18.7719                 5.4518
 IR Inten    --    184.6455               234.4716                90.5753

                     34                     35                     36
                      A                      A                      A
 Frequencies --   3059.3282              3124.9234              3125.4453
 Red. masses --      1.0351                 1.1055                 1.0898
 Frc consts  --      5.7078                 6.3603                 6.2722
 IR Inten    --     32.9279                11.6318                14.9647

                     37                     38                     39
                      A                      A                      A
 Frequencies --   3166.6776              3189.1702              3485.1540
 Red. masses --      1.0994                 1.0872                 1.0735
 Frc consts  --      6.4957                 6.5147                 7.6822
 IR Inten    --      7.7141                 6.0010                 4.3135

 - Thermochemistry -
 -------------------
 Temperature   298.150 Kelvin.  Pressure   1.00000 Atm.
 Atom     1 has atomic number  6 and mass  12.00000

 Molecular mass:   113.05891 amu.
 Principal axes and moments of inertia in atomic units:
                           1         2         3
     Eigenvalues --   340.367811912.469372241.43639
           X            0.99992   0.01229   0.00000
           Y           -0.01229   0.99992  -0.00000
           Z           -0.00000   0.00000   1.00000
 This molecule is an asymmetric top.
 Rotational symmetry number  1.
 Rotational temperatures (Kelvin)      0.25447     0.04529     0.03864
 Rotational constants (GHZ):           5.30233     0.94367     0.80517
    2 imaginary frequencies ignored.
 Zero-point vibrational energy     305512.9 (Joules/Mol)
                                   73.01934 (Kcal/Mol)
 Warning -- explicit consideration of   9 degrees of freedom as
           vibrations may cause significant error
 Vibrational temperatures:    151.71   200.31   212.06   349.83   455.43
          (Kelvin)            568.50   581.59   612.48   888.12   942.53
                             1179.18  1204.37  1314.26  1486.08  1533.78
                             1537.33  1638.11  1652.75  1680.38  1818.55
                             1874.80  1960.69  2035.01  2089.80  2094.63
                             2121.89  2171.22  2352.00  2445.27  2581.20
                             4202.08  4401.69  4496.07  4496.82  4556.14
                             4588.50  5014.36

 Zero-point correction=                           0.116364 (Hartree/Particle)
 Thermal correction to Energy=                    0.123725
 Thermal correction to Enthalpy=                  0.124669
 Thermal correction to Gibbs Free Energy=         0.084064
 Sum of electronic and zero-point Energies=           -395.952550
 Sum of electronic and thermal Energies=              -395.945189
 Sum of electronic and thermal Enthalpies=            -395.944245
 Sum of electronic and thermal Free Energies=         -395.984850

                     E (Thermal)             CV                S
                      KCal/Mol        Cal/Mol-Kelvin    Cal/Mol-Kelvin
 Total                   77.639             25.755             85.462
 Electronic               0.000              0.000              0.000
 Translational            0.889              2.981             40.084
 Rotational               0.889              2.981             28.769
 Vibrational             75.861             19.793             16.609
 Vibration     1          0.605              1.945              3.351
 Vibration     2          0.615              1.914              2.815
 Vibration     3          0.617              1.906              2.706
 Vibration     4          0.659              1.774              1.780
 Vibration     5          0.703              1.642              1.328
 Vibration     6          0.762              1.481              0.981
 Vibration     7          0.769              1.461              0.947
 Vibration     8          0.788              1.414              0.873
 Vibration     9          0.977              0.995              0.421

 Optimization completed.
    -- Stationary point found.
 Normal termination of Gaussian 16 at Tue Jun  1 20:26:38 2021.
