 Gaussian 16, Revision A.03,
 Gaussian 16:  ES64L-G16RevA.03 25-Dec-2016

 -----------------------------
 # opt freq b3lyp/6-31g(2df,p)
 -----------------------------

 -------------------
 Title Card Required
 -------------------
 Symbolic Z-matrix:
 Charge =  0 Multiplicity = 1

 SCF Done:  E(RB3LYP) =  -539.730733465     A.U. after   13 cycles
 SCF Done:  E(RB3LYP) =  -539.737731872     A.U. after   11 cycles
 SCF Done:  E(RB3LYP) =  -539.738858278     A.U. after   12 cycles
 SCF Done:  E(RB3LYP) =  -539.739250752     A.U. after   11 cycles
 SCF Done:  E(RB3LYP) =  -539.738834577     A.U. after   11 cycles
 SCF Done:  E(RB3LYP) =  -539.739433538     A.U. after   11 cycles
 SCF Done:  E(RB3LYP) =  -539.739575066     A.U. after   11 cycles
 SCF Done:  E(RB3LYP) =  -539.739713228     A.U. after   13 cycles
 SCF Done:  E(RB3LYP) =  -539.739680694     A.U. after   12 cycles
 SCF Done:  E(RB3LYP) =  -539.739755465     A.U. after   11 cycles
 SCF Done:  E(RB3LYP) =  -539.740768742     A.U. after   13 cycles
 SCF Done:  E(RB3LYP) =  -539.740933330     A.U. after   12 cycles
 SCF Done:  E(RB3LYP) =  -539.741100151     A.U. after   12 cycles
 SCF Done:  E(RB3LYP) =  -539.741118698     A.U. after   12 cycles
 SCF Done:  E(RB3LYP) =  -539.741152396     A.U. after   11 cycles
 SCF Done:  E(RB3LYP) =  -539.741153302     A.U. after   10 cycles
 SCF Done:  E(RB3LYP) =  -539.741157255     A.U. after   10 cycles
 SCF Done:  E(RB3LYP) =  -539.741157620     A.U. after    8 cycles
 SCF Done:  E(RB3LYP) =  -539.741157638     A.U. after    7 cycles
 Optimization completed.
    -- Stationary point found.
 Normal termination of Gaussian 16 at Tue Jun  1 01:38:56 2021.

 ----------------------------------------------------------------------
 #N Geom=AllCheck Guess=TCheck SCRF=Check GenChk RB3LYP/6-31G(2df,p) Fr
 eq
 ----------------------------------------------------------------------

 Structure from the checkpoint file:  "CNpCCNpCCCCCCdO.chk"
 -------------------
 Title Card Required
 -------------------
 Charge =  0 Multiplicity = 1

                         Standard orientation:
 ---------------------------------------------------------------------
 Center     Atomic      Atomic             Coordinates (Angstroms)
 Number     Number       Type             X           Y           Z
 ---------------------------------------------------------------------
      1          6           0       -3.225472   -1.992379   -0.290719
      2          7           0       -2.326769   -0.847115   -0.271413
      3          6           0       -2.925840    0.303362    0.402414
      4          6           0       -3.888117    1.088627   -0.492599
      5          7           0       -4.420235    2.237096    0.249089
      6          6           0       -1.014840   -1.204687    0.267276
      7          6           0        0.105087   -0.263618   -0.188211
      8          6           0        1.478351   -0.683901    0.346713
      9          6           0        2.609355    0.245889   -0.106221
     10          6           0        3.988449   -0.185411    0.423419
     11          6           0        5.069281    0.803236    0.053971
     12          8           0        6.074907    0.539292   -0.553094
     13          1           0       -4.180627   -1.718221   -0.746380
     14          1           0       -3.438524   -2.394339    0.719354
     15          1           0       -2.791438   -2.797859   -0.891157
     16          1           0       -2.137561    0.992787    0.713806
     17          1           0       -3.451010   -0.003923    1.330157
     18          1           0       -4.667229    0.418370   -0.892075
     19          1           0       -3.326416    1.463905   -1.354695
     20          1           0       -5.044384    1.911525    0.982436
     21          1           0       -4.989932    2.809782   -0.365792
     22          1           0       -0.778642   -2.215058   -0.087084
     23          1           0       -1.027881   -1.264596    1.374148
     24          1           0       -0.105592    0.763396    0.134738
     25          1           0        0.115846   -0.245087   -1.284656
     26          1           0        1.701630   -1.709345    0.021940
     27          1           0        1.453274   -0.712802    1.444878
     28          1           0        2.395203    1.270282    0.227427
     29          1           0        2.638550    0.280829   -1.202673
     30          1           0        4.274445   -1.172878    0.049068
     31          1           0        3.949407   -0.235888    1.521878
     32          1           0        4.863124    1.848213    0.389441
 ---------------------------------------------------------------------

 SCF Done:  E(RB3LYP) =  -539.741157638     A.U. after    1 cycles

 The electronic state is 1-A.
 Alpha  occ. eigenvalues --  -19.13621 -14.31678 -14.30699 -10.26832 -10.20342
 Alpha  occ. eigenvalues --  -10.20051 -10.19873 -10.19831 -10.19488 -10.19333
 Alpha  occ. eigenvalues --  -10.18735 -10.17972  -1.04289  -0.91865  -0.87365
 Alpha  occ. eigenvalues --   -0.81360  -0.76696  -0.72288  -0.70290  -0.65043
 Alpha  occ. eigenvalues --   -0.61360  -0.58808  -0.57300  -0.56671  -0.49430
 Alpha  occ. eigenvalues --   -0.48538  -0.48334  -0.46615  -0.45318  -0.44866
 Alpha  occ. eigenvalues --   -0.43463  -0.42909  -0.42015  -0.41484  -0.40225
 Alpha  occ. eigenvalues --   -0.37926  -0.37807  -0.37315  -0.36163  -0.34970
 Alpha  occ. eigenvalues --   -0.34426  -0.34055  -0.33558  -0.32829  -0.32277
 Alpha  occ. eigenvalues --   -0.24713  -0.23635  -0.20997
 Alpha virt. eigenvalues --   -0.01800   0.07991   0.08300   0.09200   0.10419
 Alpha virt. eigenvalues --    0.11096   0.12023   0.12912   0.13338   0.13488
 Alpha virt. eigenvalues --    0.14810   0.15598   0.16338   0.16569   0.17377

 Mulliken charges:
               1
     1  C   -0.325375
     2  N   -0.062362
     3  C   -0.114947
     4  C   -0.158579
     5  N   -0.509394
     6  C   -0.139018
     7  C   -0.196569
     8  C   -0.174547
     9  C   -0.194102
    10  C   -0.273314
    11  C    0.159805
    12  O   -0.237939
    13  H    0.117746
    14  H    0.088410
    15  H    0.116295
    16  H    0.110551
    17  H    0.065921
    18  H    0.080466
    19  H    0.109982
    20  H    0.222921
    21  H    0.226958
    22  H    0.093628
    23  H    0.073682
    24  H    0.101012
    25  H    0.104214
    26  H    0.098710
    27  H    0.096309
    28  H    0.102819
    29  H    0.112057
    30  H    0.120400
    31  H    0.116315
    32  H    0.067944
 Sum of Mulliken charges =  -0.00000

 Dipole moment (field-independent basis, Debye):
    X=             -3.6551    Y=             -0.5865    Z=              1.1399  Tot=              3.8734
 Quadrupole moment (field-independent basis, Debye-Ang):
   XX=            -91.2752   YY=            -76.2181   ZZ=            -76.2358
   XY=             -1.3983   XZ=              7.3854   YZ=             -0.6992

  Exact polarizability: 147.266  -0.889 113.414  -3.671   0.847  97.115
 Approx polarizability: 171.007  -3.498 159.709  -9.933   3.203 154.736

                      1                      2                      3
                      A                      A                      A
 Frequencies --     31.2201                35.0032                41.2293
 Red. masses --      4.4059                 2.8844                 2.5850
 Frc consts  --      0.0025                 0.0021                 0.0026
 IR Inten    --      0.7948                 2.4601                 0.8632

                      4                      5                      6
                      A                      A                      A
 Frequencies --     61.6154                78.2396                87.2549
 Red. masses --      2.3732                 2.8855                 3.0505
 Frc consts  --      0.0053                 0.0104                 0.0137
 IR Inten    --      6.7497                 1.6189                 1.7270

                      7                      8                      9
                      A                      A                      A
 Frequencies --    114.3643               132.3610               148.4386
 Red. masses --      2.2069                 2.2263                 2.1955
 Frc consts  --      0.0170                 0.0230                 0.0285
 IR Inten    --      0.4716                 0.0746                 0.1885

                     10                     11                     12
                      A                      A                      A
 Frequencies --    192.5006               208.5664               228.0216
 Red. masses --      1.8969                 2.4591                 2.5838
 Frc consts  --      0.0414                 0.0630                 0.0792
 IR Inten    --      0.7250                 0.4621                 3.5405

                     13                     14                     15
                      A                      A                      A
 Frequencies --    240.7990               253.9962               329.4959
 Red. masses --      1.2939                 1.4559                 2.5889
 Frc consts  --      0.0442                 0.0553                 0.1656
 IR Inten    --     17.8097                18.1804                 2.8432

                     16                     17                     18
                      A                      A                      A
 Frequencies --    381.9034               395.4728               416.7451
 Red. masses --      2.7670                 2.9483                 2.8839
 Frc consts  --      0.2378                 0.2717                 0.2951
 IR Inten    --      2.0310                 0.6341                11.8366

                     19                     20                     21
                      A                      A                      A
 Frequencies --    478.9622               528.2166               535.7653
 Red. masses --      3.0592                 2.9948                 2.5573
 Frc consts  --      0.4135                 0.4923                 0.4325
 IR Inten    --      6.4969                 1.7931                 8.9464

                     22                     23                     24
                      A                      A                      A
 Frequencies --    734.9414               758.1028               797.1666
 Red. masses --      1.0735                 1.1820                 1.1346
 Frc consts  --      0.3416                 0.4002                 0.4248
 IR Inten    --      3.9873                 0.0538                14.2497

                     25                     26                     27
                      A                      A                      A
 Frequencies --    810.4103               855.2164               879.1319
 Red. masses --      1.4192                 1.8372                 1.3962
 Frc consts  --      0.5492                 0.7917                 0.6358
 IR Inten    --      1.7959                86.6650                 1.3412

                     28                     29                     30
                      A                      A                      A
 Frequencies --    893.1523               973.8652               977.4934
 Red. masses --      2.1137                 1.9536                 2.1843
 Frc consts  --      0.9935                 1.0916                 1.2296
 IR Inten    --     39.2564                12.2710                 4.4506

                     31                     32                     33
                      A                      A                      A
 Frequencies --    999.6999              1026.9319              1031.7369
 Red. masses --      1.7084                 3.2377                 2.5811
 Frc consts  --      1.0060                 2.0117                 1.6188
 IR Inten    --     12.2997                 3.7828                 5.3100

                     34                     35                     36
                      A                      A                      A
 Frequencies --   1062.4074              1064.0156              1075.1342
 Red. masses --      2.3539                 2.6120                 2.2709
 Frc consts  --      1.5654                 1.7423                 1.5466
 IR Inten    --      7.6905                25.3065                41.0343

                     37                     38                     39
                      A                      A                      A
 Frequencies --   1103.8558              1109.0126              1124.7989
 Red. masses --      2.0943                 2.8889                 1.6824
 Frc consts  --      1.5036                 2.0934                 1.2541
 IR Inten    --     19.4014                 5.6421                16.9365

                     40                     41                     42
                      A                      A                      A
 Frequencies --   1147.8147              1168.1026              1197.7935
 Red. masses --      1.3838                 1.7556                 1.5030
 Frc consts  --      1.0741                 1.4114                 1.2705
 IR Inten    --      5.4515                 9.1493                 8.6625

                     43                     44                     45
                      A                      A                      A
 Frequencies --   1224.9390              1242.1512              1257.8812
 Red. masses --      1.6704                 1.4904                 1.5035
 Frc consts  --      1.4767                 1.3548                 1.4016
 IR Inten    --      6.7411                 6.9331                 2.1676

                     46                     47                     48
                      A                      A                      A
 Frequencies --   1275.9407              1304.6381              1317.7517
 Red. masses --      1.5215                 1.3924                 1.2549
 Frc consts  --      1.4594                 1.3963                 1.2839
 IR Inten    --     14.9736                 3.2639                10.6668

                     49                     50                     51
                      A                      A                      A
 Frequencies --   1322.1702              1327.9172              1336.4079
 Red. masses --      1.2966                 1.0732                 1.1887
 Frc consts  --      1.3354                 1.1150                 1.2508
 IR Inten    --      7.9580                 0.4298                 6.6633

                     52                     53                     54
                      A                      A                      A
 Frequencies --   1341.7517              1366.0067              1379.5348
 Red. masses --      1.2025                 1.4351                 1.3192
 Frc consts  --      1.2755                 1.5777                 1.4792
 IR Inten    --      4.1144                 2.3912                12.0561

                     55                     56                     57
                      A                      A                      A
 Frequencies --   1397.4145              1415.8785              1430.8278
 Red. masses --      1.5593                 1.4163                 1.1974
 Frc consts  --      1.7941                 1.6728                 1.4443
 IR Inten    --      1.1811                24.4394                 5.8993

                     58                     59                     60
                      A                      A                      A
 Frequencies --   1434.8883              1460.3980              1463.6914
 Red. masses --      1.4627                 1.1768                 1.0872
 Frc consts  --      1.7744                 1.4788                 1.3723
 IR Inten    --      3.0373                 0.5532                 2.3797

                     61                     62                     63
                      A                      A                      A
 Frequencies --   1484.7616              1487.4479              1490.2110
 Red. masses --      1.0718                 1.0845                 1.0527
 Frc consts  --      1.3922                 1.4137                 1.3774
 IR Inten    --      0.2813                 0.7909                 5.8789

                     64                     65                     66
                      A                      A                      A
 Frequencies --   1496.0508              1499.7910              1506.7682
 Red. masses --      1.0931                 1.0893                 1.0720
 Frc consts  --      1.4414                 1.4436                 1.4340
 IR Inten    --      6.5304                 2.7311                 0.6975

                     67                     68                     69
                      A                      A                      A
 Frequencies --   1514.1944              1516.6320              1658.5128
 Red. masses --      1.0977                 1.0887                 1.0890
 Frc consts  --      1.4828                 1.4754                 1.7649
 IR Inten    --      4.9139                 2.4323                24.5179

                     70                     71                     72
                      A                      A                      A
 Frequencies --   1836.2893              2843.5089              2891.0955
 Red. masses --     10.1055                 1.0813                 1.0729
 Frc consts  --     20.0765                 5.1510                 5.2839
 IR Inten    --    203.5931               112.2563                44.1593

                     73                     74                     75
                      A                      A                      A
 Frequencies --   2901.3621              2917.9995              2958.6945
 Red. masses --      1.0706                 1.0632                 1.0716
 Frc consts  --      5.3099                 5.3339                 5.5268
 IR Inten    --     51.6711               134.9736                66.8762

                     76                     77                     78
                      A                      A                      A
 Frequencies --   3005.4200              3006.1999              3016.8577
 Red. masses --      1.0595                 1.0628                 1.0618
 Frc consts  --      5.6383                 5.6591                 5.6938
 IR Inten    --      3.8147                 8.2273                23.9917

                     79                     80                     81
                      A                      A                      A
 Frequencies --   3027.1492              3033.3509              3043.1801
 Red. masses --      1.0674                 1.0914                 1.0853
 Frc consts  --      5.7628                 5.9167                 5.9220
 IR Inten    --     28.7825                13.8830                22.0556

                     82                     83                     84
                      A                      A                      A
 Frequencies --   3056.5581              3065.4121              3066.4541
 Red. masses --      1.1008                 1.0778                 1.0800
 Frc consts  --      6.0596                 5.9671                 5.9835
 IR Inten    --     11.1847                27.4566                20.7077

                     85                     86                     87
                      A                      A                      A
 Frequencies --   3075.7422              3096.2138              3098.4450
 Red. masses --      1.1029                 1.0971                 1.0878
 Frc consts  --      6.1473                 6.1964                 6.1530
 IR Inten    --     74.3214                26.8166                38.3726

                     88                     89                     90
                      A                      A                      A
 Frequencies --   3110.3112              3486.9982              3565.3400
 Red. masses --      1.1015                 1.0500                 1.0914
 Frc consts  --      6.2784                 7.5220                 8.1737
 IR Inten    --     35.9167                 0.6365                 0.0419

 - Thermochemistry -
 -------------------
 Temperature   298.150 Kelvin.  Pressure   1.00000 Atm.
 Atom     1 has atomic number  6 and mass  12.00000

 Molecular mass:   172.15756 amu.
 Principal axes and moments of inertia in atomic units:
                           1         2         3
     Eigenvalues --   944.851907920.017728612.86628
           X            0.99999  -0.00166   0.00393
           Y            0.00168   0.99999  -0.00378
           Z           -0.00392   0.00379   0.99999
 This molecule is an asymmetric top.
 Rotational symmetry number  1.
 Warning -- assumption of classical behavior for rotation
           may cause significant error
 Rotational temperatures (Kelvin)      0.09167     0.01094     0.01006
 Rotational constants (GHZ):           1.91008     0.22787     0.20954
 Zero-point vibrational energy     758241.6 (Joules/Mol)
                                  181.22409 (Kcal/Mol)
 Warning -- explicit consideration of  21 degrees of freedom as
           vibrations may cause significant error
 Vibrational temperatures:     44.92    50.36    59.32    88.65   112.57
          (Kelvin)            125.54   164.54   190.44   213.57   276.97
                              300.08   328.07   346.46   365.44   474.07
                              549.47   569.00   599.60   689.12   759.99
                              770.85  1057.42  1090.74  1146.94  1166.00
                             1230.47  1264.87  1285.05  1401.17  1406.39
                             1438.35  1477.53  1484.44  1528.57  1530.88
                             1546.88  1588.20  1595.62  1618.33  1651.45
                             1680.64  1723.36  1762.41  1787.18  1809.81
                             1835.79  1877.08  1895.95  1902.31  1910.58
                             1922.79  1930.48  1965.38  1984.84  2010.57
                             2037.13  2058.64  2064.48  2101.19  2105.93
                             2136.24  2140.11  2144.08  2152.48  2157.86
                             2167.90  2178.59  2182.10  2386.23  2642.01
                             4091.18  4159.64  4174.41  4198.35  4256.90
                             4324.13  4325.25  4340.59  4355.39  4364.32
                             4378.46  4397.71  4410.44  4411.94  4425.31
                             4454.76  4457.97  4475.04  5017.01  5129.73

 Zero-point correction=                           0.288799 (Hartree/Particle)
 Thermal correction to Energy=                    0.304317
 Thermal correction to Enthalpy=                  0.305261
 Thermal correction to Gibbs Free Energy=         0.243584
 Sum of electronic and zero-point Energies=           -539.452359
 Sum of electronic and thermal Energies=              -539.436841
 Sum of electronic and thermal Enthalpies=            -539.435897
 Sum of electronic and thermal Free Energies=         -539.497573

                     E (Thermal)             CV                S
                      KCal/Mol        Cal/Mol-Kelvin    Cal/Mol-Kelvin
 Total                  190.962             53.923            129.810
 Electronic               0.000              0.000              0.000
 Translational            0.889              2.981             41.337
 Rotational               0.889              2.981             32.533
 Vibrational            189.184             47.961             55.939
 Vibration     1          0.594              1.983              5.750
 Vibration     2          0.594              1.982              5.524
 Vibration     3          0.594              1.981              5.199
 Vibration     4          0.597              1.973              4.405
 Vibration     5          0.600              1.964              3.935
 Vibration     6          0.601              1.958              3.721
 Vibration     7          0.607              1.938              3.193
 Vibration     8          0.612              1.921              2.911
 Vibration     9          0.618              1.904              2.692
 Vibration    10          0.634              1.850              2.204
 Vibration    11          0.642              1.828              2.056
 Vibration    12          0.651              1.798              1.894
 Vibration    13          0.658              1.778              1.797
 Vibration    14          0.665              1.756              1.703
 Vibration    15          0.712              1.617              1.263
 Vibration    16          0.751              1.509              1.032
 Vibration    17          0.762              1.480              0.979
 Vibration    18          0.780              1.434              0.903
 Vibration    19          0.835              1.297              0.713
 Vibration    20          0.883              1.188              0.591
 Vibration    21          0.891              1.171              0.574

 Optimization completed.
    -- Stationary point found.
 Normal termination of Gaussian 16 at Tue Jun  1 02:50:18 2021.
