 Gaussian 16, Revision A.03,
 Gaussian 16:  ES64L-G16RevA.03 25-Dec-2016

 -----------------------------
 # opt freq b3lyp/6-31g(2df,p)
 -----------------------------

 -------------------
 Title Card Required
 -------------------
 Symbolic Z-matrix:
 Charge =  0 Multiplicity = 1

 SCF Done:  E(RB3LYP) =  -358.918261375     A.U. after   14 cycles
 SCF Done:  E(RB3LYP) =  -358.962708140     A.U. after   13 cycles
 SCF Done:  E(RB3LYP) =  -358.963701620     A.U. after   11 cycles
 SCF Done:  E(RB3LYP) =  -358.963827336     A.U. after   11 cycles
 SCF Done:  E(RB3LYP) =  -358.963850299     A.U. after   10 cycles
 SCF Done:  E(RB3LYP) =  -358.963866596     A.U. after    9 cycles
 SCF Done:  E(RB3LYP) =  -358.963867888     A.U. after    8 cycles
 SCF Done:  E(RB3LYP) =  -358.963867975     A.U. after    7 cycles
 Optimization completed.
    -- Stationary point found.
 Normal termination of Gaussian 16 at Tue Jun  1 18:53:23 2021.

 ----------------------------------------------------------------------
 #N Geom=AllCheck Guess=TCheck SCRF=Check GenChk RB3LYP/6-31G(2df,p) Fr
 eq
 ----------------------------------------------------------------------

 Structure from the checkpoint file:  "CNpCCtNpCCtN.chk"
 -------------------
 Title Card Required
 -------------------
 Charge =  0 Multiplicity = 1

                         Standard orientation:
 ---------------------------------------------------------------------
 Center     Atomic      Atomic             Coordinates (Angstroms)
 Number     Number       Type             X           Y           Z
 ---------------------------------------------------------------------
      1          6           0        0.753811    1.838642   -0.160824
      2          7           0        0.010748    0.582697   -0.215016
      3          6           0        0.633048   -0.477163    0.575103
      4          6           0        1.957397   -0.831586    0.055976
      5          7           0        3.009134   -1.106470   -0.333502
      6          6           0       -1.384086    0.785157    0.160036
      7          6           0       -2.205626   -0.404095   -0.091692
      8          7           0       -2.853028   -1.344215   -0.267320
      9          1           0        1.779533    1.667111   -0.493872
     10          1           0        0.784717    2.278042    0.852857
     11          1           0        0.292211    2.562247   -0.838045
     12          1           0        0.000518   -1.370375    0.532329
     13          1           0        0.745352   -0.208587    1.643262
     14          1           0       -1.783326    1.610076   -0.439172
     15          1           0       -1.514239    1.071670    1.221910
 ---------------------------------------------------------------------

 SCF Done:  E(RB3LYP) =  -358.963867975     A.U. after    1 cycles

 The electronic state is 1-A.
 Alpha  occ. eigenvalues --  -14.37428 -14.34876 -14.34232 -10.28142 -10.27586
 Alpha  occ. eigenvalues --  -10.23923 -10.23408 -10.23349  -0.97901  -0.91918
 Alpha  occ. eigenvalues --   -0.91132  -0.79292  -0.76368  -0.66528  -0.55856
 Alpha  occ. eigenvalues --   -0.54809  -0.52900  -0.48276  -0.46647  -0.45028
 Alpha  occ. eigenvalues --   -0.42779  -0.41197  -0.37450  -0.36933  -0.35389
 Alpha  occ. eigenvalues --   -0.34629  -0.34276  -0.33498  -0.26465
 Alpha virt. eigenvalues --   -0.00789   0.01852   0.02621   0.03326   0.06092
 Alpha virt. eigenvalues --    0.10470   0.11630   0.12494   0.13024   0.13652
 Alpha virt. eigenvalues --    0.15915   0.16509   0.17786   0.21037   0.21274

 Mulliken charges:
               1
     1  C   -0.341535
     2  N   -0.072176
     3  C   -0.290263
     4  C    0.281180
     5  N   -0.300714
     6  C   -0.277054
     7  C    0.274354
     8  N   -0.296994
     9  H    0.162517
    10  H    0.107168
    11  H    0.136318
    12  H    0.182874
    13  H    0.133969
    14  H    0.164703
    15  H    0.135654
 Sum of Mulliken charges =  -0.00000

 Dipole moment (field-independent basis, Debye):
    X=             -1.0590    Y=              4.1601    Z=              2.1669  Tot=              4.8086
 Quadrupole moment (field-independent basis, Debye-Ang):
   XX=            -65.8287   YY=            -47.2354   ZZ=            -46.2959
   XY=             -2.7779   XZ=              1.0115   YZ=             -2.3567

  Exact polarizability:  81.617   2.350  67.451  -2.316   1.264  50.725
 Approx polarizability: 117.111   6.327 101.557  -6.455   4.658  79.833

                      1                      2                      3
                      A                      A                      A
 Frequencies --     70.0668                93.3115               157.4705
 Red. masses --      5.6112                 3.4674                 3.8944
 Frc consts  --      0.0162                 0.0178                 0.0569
 IR Inten    --      7.7509                 7.4785                 3.4129

                      4                      5                      6
                      A                      A                      A
 Frequencies --    167.3496               249.3029               334.5569
 Red. masses --      5.2885                 1.1108                 2.9387
 Frc consts  --      0.0873                 0.0407                 0.1938
 IR Inten    --      2.1890                 0.4593                 7.9744

                      7                      8                      9
                      A                      A                      A
 Frequencies --    353.9864               379.7671               394.2802
 Red. masses --      3.4844                 2.5576                 3.8581
 Frc consts  --      0.2572                 0.2173                 0.3534
 IR Inten    --      4.7851                 1.4473                 0.5555

                     10                     11                     12
                      A                      A                      A
 Frequencies --    395.0005               515.6016               611.7501
 Red. masses --      3.8253                 8.2252                 6.2332
 Frc consts  --      0.3516                 1.2883                 1.3744
 IR Inten    --      0.9643                 2.4246                 1.3743

                     13                     14                     15
                      A                      A                      A
 Frequencies --    852.9596               941.3599               948.0075
 Red. masses --      4.7290                 3.7278                 3.2447
 Frc consts  --      2.0271                 1.9463                 1.7181
 IR Inten    --     22.2091                 1.8466                 1.9429

                     16                     17                     18
                      A                      A                      A
 Frequencies --   1000.3185              1014.2730              1064.8881
 Red. masses --      1.9549                 1.8713                 2.0427
 Frc consts  --      1.1525                 1.1343                 1.3648
 IR Inten    --      5.4403                 4.2692                39.6133

                     19                     20                     21
                      A                      A                      A
 Frequencies --   1152.8689              1166.5815              1234.2208
 Red. masses --      1.3520                 2.6040                 1.5845
 Frc consts  --      1.0588                 2.0880                 1.4221
 IR Inten    --      7.9169                24.3750                12.1947

                     22                     23                     24
                      A                      A                      A
 Frequencies --   1277.3554              1309.3269              1391.3713
 Red. masses --      1.3032                 1.4577                 1.4560
 Frc consts  --      1.2529                 1.4723                 1.6607
 IR Inten    --     22.7924                 8.4122                27.1124

                     25                     26                     27
                      A                      A                      A
 Frequencies --   1402.6783              1461.8092              1475.9257
 Red. masses --      1.4109                 1.1519                 1.0777
 Frc consts  --      1.6355                 1.4503                 1.3832
 IR Inten    --     10.6203                 0.2059                 1.3336

                     28                     29                     30
                      A                      A                      A
 Frequencies --   1478.2417              1494.4856              1505.1337
 Red. masses --      1.0938                 1.0587                 1.0535
 Frc consts  --      1.4083                 1.3931                 1.4061
 IR Inten    --      6.3025                20.3772                 5.8460

                     31                     32                     33
                      A                      A                      A
 Frequencies --   2367.9335              2370.5659              2920.6012
 Red. masses --     12.6226                12.6240                 1.0722
 Frc consts  --     41.7002                41.7976                 5.3885
 IR Inten    --      0.9099                 1.5543                28.1580

                     34                     35                     36
                      A                      A                      A
 Frequencies --   2925.7336              2947.1867              3074.0381
 Red. masses --      1.0711                 1.0587                 1.0859
 Frc consts  --      5.4019                 5.4181                 6.0460
 IR Inten    --     37.1994                68.8096                 1.2553

                     37                     38                     39
                      A                      A                      A
 Frequencies --   3074.2330              3084.7241              3133.4164
 Red. masses --      1.0854                 1.0746                 1.1026
 Frc consts  --      6.0439                 6.0245                 6.3785
 IR Inten    --      2.5634                18.6235                 9.0323

 - Thermochemistry -
 -------------------
 Temperature   298.150 Kelvin.  Pressure   1.00000 Atm.
 Atom     1 has atomic number  6 and mass  12.00000

 Molecular mass:   109.06400 amu.
 Principal axes and moments of inertia in atomic units:
                           1         2         3
     Eigenvalues --   507.987481442.634431848.82930
           X            0.99999   0.00329  -0.00079
           Y           -0.00330   0.99993  -0.01159
           Z            0.00075   0.01159   0.99993
 This molecule is an asymmetric top.
 Rotational symmetry number  1.
 Warning -- assumption of classical behavior for rotation
           may cause significant error
 Rotational temperatures (Kelvin)      0.17050     0.06004     0.04685
 Rotational constants (GHZ):           3.55273     1.25100     0.97615
 Zero-point vibrational energy     309789.0 (Joules/Mol)
                                   74.04136 (Kcal/Mol)
 Warning -- explicit consideration of  12 degrees of freedom as
           vibrations may cause significant error
 Vibrational temperatures:    100.81   134.25   226.56   240.78   358.69
          (Kelvin)            481.35   509.31   546.40   567.28   568.32
                              741.84   880.17  1227.22  1354.41  1363.97
                             1439.24  1459.31  1532.14  1658.72  1678.45
                             1775.77  1837.83  1883.83  2001.87  2018.14
                             2103.22  2123.53  2126.86  2150.23  2165.55
                             3406.93  3410.72  4202.09  4209.48  4240.34
                             4422.86  4423.14  4438.23  4508.29

 Zero-point correction=                           0.117992 (Hartree/Particle)
 Thermal correction to Energy=                    0.126533
 Thermal correction to Enthalpy=                  0.127477
 Thermal correction to Gibbs Free Energy=         0.084439
 Sum of electronic and zero-point Energies=           -358.845876
 Sum of electronic and thermal Energies=              -358.837335
 Sum of electronic and thermal Enthalpies=            -358.836391
 Sum of electronic and thermal Free Energies=         -358.879429

                     E (Thermal)             CV                S
                      KCal/Mol        Cal/Mol-Kelvin    Cal/Mol-Kelvin
 Total                   79.401             29.369             90.581
 Electronic               0.000              0.000              0.000
 Translational            0.889              2.981             39.977
 Rotational               0.889              2.981             28.695
 Vibrational             77.623             23.408             21.909
 Vibration     1          0.598              1.968              4.151
 Vibration     2          0.602              1.954              3.589
 Vibration     3          0.621              1.894              2.580
 Vibration     4          0.624              1.883              2.465
 Vibration     5          0.662              1.764              1.736
 Vibration     6          0.716              1.606              1.238
 Vibration     7          0.730              1.567              1.148
 Vibration     8          0.750              1.513              1.040
 Vibration     9          0.761              1.482              0.984
 Vibration    10          0.762              1.481              0.981
 Vibration    11          0.871              1.215              0.620
 Vibration    12          0.971              1.007              0.430

 Optimization completed.
    -- Stationary point found.
 Normal termination of Gaussian 16 at Tue Jun  1 19:12:00 2021.
