 Gaussian 16, Revision A.03,
 Gaussian 16:  ES64L-G16RevA.03 25-Dec-2016

 -----------------------------
 # opt freq b3lyp/6-31g(2df,p)
 -----------------------------

 -------------------
 Title Card Required
 -------------------
 Symbolic Z-matrix:
 Charge =  0 Multiplicity = 1

 SCF Done:  E(RB3LYP) =  -493.067861224     A.U. after   13 cycles
 SCF Done:  E(RB3LYP) =  -493.075741635     A.U. after   13 cycles
 SCF Done:  E(RB3LYP) =  -493.077727252     A.U. after   13 cycles
 SCF Done:  E(RB3LYP) =  -493.080298628     A.U. after   16 cycles
 SCF Done:  E(RB3LYP) =  -493.082700268     A.U. after   14 cycles
 SCF Done:  E(RB3LYP) =  -493.084376729     A.U. after   14 cycles
 SCF Done:  E(RB3LYP) =  -493.085203299     A.U. after   12 cycles
 SCF Done:  E(RB3LYP) =  -493.083986917     A.U. after   13 cycles
 SCF Done:  E(RB3LYP) =  -493.085472857     A.U. after   13 cycles
 SCF Done:  E(RB3LYP) =  -493.085585888     A.U. after   12 cycles
 SCF Done:  E(RB3LYP) =  -493.087102790     A.U. after   14 cycles
 SCF Done:  E(RB3LYP) =  -493.087219355     A.U. after   16 cycles
 SCF Done:  E(RB3LYP) =  -493.087414025     A.U. after   13 cycles
 SCF Done:  E(RB3LYP) =  -493.087456396     A.U. after   13 cycles
 SCF Done:  E(RB3LYP) =  -493.087465590     A.U. after   12 cycles
 SCF Done:  E(RB3LYP) =  -493.087469899     A.U. after   12 cycles
 SCF Done:  E(RB3LYP) =  -493.087470779     A.U. after    9 cycles
 SCF Done:  E(RB3LYP) =  -493.087471013     A.U. after    9 cycles
 SCF Done:  E(RB3LYP) =  -493.087471039     A.U. after    9 cycles
 Optimization completed.
    -- Stationary point found.
 Normal termination of Gaussian 16 at Tue Jun  1 06:57:36 2021.

 ----------------------------------------------------------------------
 #N Geom=AllCheck Guess=TCheck SCRF=Check GenChk RB3LYP/6-31G(2df,p) Fr
 eq
 ----------------------------------------------------------------------

 Structure from the checkpoint file:  "CNpCCCNdOpNCN.chk"
 -------------------
 Title Card Required
 -------------------
 Charge =  0 Multiplicity = 1

                         Standard orientation:
 ---------------------------------------------------------------------
 Center     Atomic      Atomic             Coordinates (Angstroms)
 Number     Number       Type             X           Y           Z
 ---------------------------------------------------------------------
      1          6           0       -1.022046    1.873206    0.067400
      2          7           0       -0.984899    0.424063   -0.091460
      3          6           0        0.187547   -0.194354    0.523904
      4          6           0        1.474909    0.073107   -0.262814
      5          6           0        2.664973   -0.685381    0.338366
      6          7           0        3.843394   -0.493384   -0.554453
      7          8           0        4.746926    0.110256   -0.034842
      8          7           0       -2.161202   -0.201446    0.407499
      9          6           0       -3.227070   -0.246816   -0.586872
     10          7           0       -4.382107   -0.851902    0.058860
     11          1           0       -0.148918    2.333425   -0.402813
     12          1           0       -1.042026    2.180200    1.130991
     13          1           0       -1.910893    2.275321   -0.425167
     14          1           0       -0.011810   -1.268521    0.548417
     15          1           0        0.318130    0.132331    1.574612
     16          1           0        1.715545    1.141941   -0.270961
     17          1           0        1.330744   -0.232785   -1.304130
     18          1           0        2.462040   -1.763911    0.331920
     19          1           0        2.914206   -0.351160    1.351354
     20          1           0       -2.514023    0.277180    1.240436
     21          1           0       -2.824525   -0.792656   -1.453821
     22          1           0       -3.538238    0.749125   -0.948005
     23          1           0       -4.205244   -1.837973    0.224096
     24          1           0       -5.196574   -0.784447   -0.541225
 ---------------------------------------------------------------------

 SCF Done:  E(RB3LYP) =  -493.087471039     A.U. after    1 cycles

 The electronic state is 1-A.
 Alpha  occ. eigenvalues --  -19.19549 -14.43769 -14.34759 -14.33513 -14.31257
 Alpha  occ. eigenvalues --  -10.22822 -10.21509 -10.20948 -10.20564 -10.19688
 Alpha  occ. eigenvalues --   -1.15271  -0.98024  -0.88855  -0.82596  -0.79420
 Alpha  occ. eigenvalues --   -0.73122  -0.67804  -0.62786  -0.59670  -0.58831
 Alpha  occ. eigenvalues --   -0.51319  -0.50831  -0.49445  -0.48881  -0.46350
 Alpha  occ. eigenvalues --   -0.45301  -0.45062  -0.43621  -0.42135  -0.40594
 Alpha  occ. eigenvalues --   -0.39513  -0.38228  -0.37525  -0.36467  -0.35820
 Alpha  occ. eigenvalues --   -0.34171  -0.24755  -0.23458  -0.22676  -0.21759
 Alpha virt. eigenvalues --   -0.07666   0.07561   0.08582   0.10227   0.11612
 Alpha virt. eigenvalues --    0.12183   0.13085   0.13979   0.14365   0.15159
 Alpha virt. eigenvalues --    0.15855   0.17143   0.17624   0.18024   0.19711

 Mulliken charges:
               1
     1  C   -0.327426
     2  N   -0.070307
     3  C   -0.104506
     4  C   -0.209728
     5  C   -0.121214
     6  N    0.030550
     7  O   -0.205391
     8  N   -0.260003
     9  C   -0.067981
    10  N   -0.514603
    11  H    0.126987
    12  H    0.093585
    13  H    0.126828
    14  H    0.111667
    15  H    0.075136
    16  H    0.113014
    17  H    0.127326
    18  H    0.123723
    19  H    0.109839
    20  H    0.205604
    21  H    0.094459
    22  H    0.080940
    23  H    0.231420
    24  H    0.230081
 Sum of Mulliken charges =   0.00000

 Dipole moment (field-independent basis, Debye):
    X=             -2.8538    Y=             -0.1127    Z=              0.2261  Tot=              2.8650
 Quadrupole moment (field-independent basis, Debye-Ang):
   XX=            -72.5287   YY=            -57.1175   ZZ=            -62.8865
   XY=              0.0280   XZ=              7.6414   YZ=              0.1624

  Exact polarizability: 122.712   4.911  80.198   1.345  -0.268  73.938
 Approx polarizability: 147.411  10.204 118.978   2.361   0.796 114.882

                      1                      2                      3
                      A                      A                      A
 Frequencies --     32.0954                41.5464                73.9304
 Red. masses --      4.1126                 6.5684                 3.0804
 Frc consts  --      0.0025                 0.0067                 0.0099
 IR Inten    --      1.2647                 0.3247                 1.4935

                      4                      5                      6
                      A                      A                      A
 Frequencies --     78.6309                99.5715               131.4063
 Red. masses --      2.5277                 2.5226                 3.3027
 Frc consts  --      0.0092                 0.0147                 0.0336
 IR Inten    --      1.1437                 1.9477                 1.8012

                      7                      8                      9
                      A                      A                      A
 Frequencies --    149.1149               210.2638               256.9105
 Red. masses --      2.2562                 1.7456                 1.7023
 Frc consts  --      0.0296                 0.0455                 0.0662
 IR Inten    --      4.5980                 6.8798                 4.3978

                     10                     11                     12
                      A                      A                      A
 Frequencies --    276.7454               278.3404               340.6420
 Red. masses --      3.2143                 1.3313                 2.8289
 Frc consts  --      0.1450                 0.0608                 0.1934
 IR Inten    --      4.8302                30.1186                 0.3756

                     13                     14                     15
                      A                      A                      A
 Frequencies --    381.5707               435.6855               495.3790
 Red. masses --      3.2836                 2.6071                 3.4542
 Frc consts  --      0.2817                 0.2916                 0.4994
 IR Inten    --     16.4152                 3.5818                 2.8890

                     16                     17                     18
                      A                      A                      A
 Frequencies --    543.5898               600.1550               766.9999
 Red. masses --      3.3575                 2.8509                 1.1295
 Frc consts  --      0.5845                 0.6050                 0.3915
 IR Inten    --      2.4435                 2.7188                 1.8293

                     19                     20                     21
                      A                      A                      A
 Frequencies --    806.8262               844.4352               857.5053
 Red. masses --      2.0026                 2.2142                 1.3639
 Frc consts  --      0.7681                 0.9303                 0.5909
 IR Inten    --     69.1691                 1.6670               141.1198

                     22                     23                     24
                      A                      A                      A
 Frequencies --    912.6691               923.3437               969.1464
 Red. masses --      1.9675                 1.9476                 1.4700
 Frc consts  --      0.9656                 0.9783                 0.8135
 IR Inten    --     21.7076                47.0470                12.7167

                     25                     26                     27
                      A                      A                      A
 Frequencies --   1012.8270              1055.9897              1065.7058
 Red. masses --      3.3099                 2.5601                 2.0429
 Frc consts  --      2.0005                 1.6820                 1.3670
 IR Inten    --      9.9621                12.8580                 4.4599

                     28                     29                     30
                      A                      A                      A
 Frequencies --   1088.7416              1123.1129              1133.6151
 Red. masses --      2.5917                 1.7389                 1.8904
 Frc consts  --      1.8100                 1.2923                 1.4313
 IR Inten    --     13.1389                 4.0678                26.5457

                     31                     32                     33
                      A                      A                      A
 Frequencies --   1163.7046              1184.3928              1205.1971
 Red. masses --      1.9313                 1.9012                 1.5169
 Frc consts  --      1.5410                 1.5714                 1.2981
 IR Inten    --     35.4412                 4.0783                11.7317

                     34                     35                     36
                      A                      A                      A
 Frequencies --   1235.6612              1251.9885              1281.7565
 Red. masses --      1.6097                 1.3348                 2.2104
 Frc consts  --      1.4481                 1.2327                 2.1396
 IR Inten    --     11.2142                 0.9531                 0.9290

                     37                     38                     39
                      A                      A                      A
 Frequencies --   1306.8831              1318.0291              1325.2180
 Red. masses --      1.2425                 1.2034                 1.2549
 Frc consts  --      1.2503                 1.2318                 1.2985
 IR Inten    --      0.5203                 7.2515                 3.9798

                     40                     41                     42
                      A                      A                      A
 Frequencies --   1344.6833              1400.0496              1418.3897
 Red. masses --      1.3713                 1.4171                 1.2449
 Frc consts  --      1.4610                 1.6365                 1.4756
 IR Inten    --      4.3426                12.1720                21.3297

                     43                     44                     45
                      A                      A                      A
 Frequencies --   1455.6377              1465.1457              1484.5292
 Red. masses --      1.2056                 1.0908                 1.1122
 Frc consts  --      1.5051                 1.3796                 1.4442
 IR Inten    --      6.2127                 2.1351                12.0527

                     46                     47                     48
                      A                      A                      A
 Frequencies --   1488.6943              1497.4736              1502.5767
 Red. masses --      1.0817                 1.0592                 1.1293
 Frc consts  --      1.4125                 1.3994                 1.5022
 IR Inten    --      4.3572                 2.8276                 5.0923

                     49                     50                     51
                      A                      A                      A
 Frequencies --   1515.5650              1538.1802              1645.8355
 Red. masses --      1.1306                 1.0834                 1.0999
 Frc consts  --      1.5301                 1.5102                 1.7553
 IR Inten    --     18.7288                 1.6895                27.3841

                     52                     53                     54
                      A                      A                      A
 Frequencies --   1671.1514              2908.9516              2925.6369
 Red. masses --     12.7709                 1.0723                 1.0604
 Frc consts  --     21.0138                 5.3459                 5.3478
 IR Inten    --    109.6859                48.6377                84.8249

                     55                     56                     57
                      A                      A                      A
 Frequencies --   2944.8695              2989.3544              3020.7493
 Red. masses --      1.0654                 1.0946                 1.0547
 Frc consts  --      5.4436                 5.7630                 5.6701
 IR Inten    --     72.3137                61.1187                 8.7834

                     58                     59                     60
                      A                      A                      A
 Frequencies --   3043.8169              3078.1270              3080.9830
 Red. masses --      1.0599                 1.0838                 1.0850
 Frc consts  --      5.7856                 6.0503                 6.0681
 IR Inten    --     15.2138                19.5844                13.5945

                     61                     62                     63
                      A                      A                      A
 Frequencies --   3090.4777              3105.3274              3119.4790
 Red. masses --      1.0956                 1.1020                 1.1027
 Frc consts  --      6.1653                 6.2613                 6.3220
 IR Inten    --      6.7358                39.2556                28.6754

                     64                     65                     66
                      A                      A                      A
 Frequencies --   3391.0542              3504.3722              3591.5605
 Red. masses --      1.0730                 1.0495                 1.0924
 Frc consts  --      7.2698                 7.5938                 8.3024
 IR Inten    --      7.9491                 0.2081                 1.0623

 - Thermochemistry -
 -------------------
 Temperature   298.150 Kelvin.  Pressure   1.00000 Atm.
 Atom     1 has atomic number  6 and mass  12.00000

 Molecular mass:   146.11676 amu.
 Principal axes and moments of inertia in atomic units:
                           1         2         3
     Eigenvalues --   437.161904604.245344830.45127
           X            0.99997  -0.00007   0.00716
           Y            0.00009   1.00000  -0.00286
           Z           -0.00716   0.00286   0.99997
 This molecule is an asymmetric top.
 Rotational symmetry number  1.
 Warning -- assumption of classical behavior for rotation
           may cause significant error
 Rotational temperatures (Kelvin)      0.19813     0.01881     0.01793
 Rotational constants (GHZ):           4.12831     0.39197     0.37362
 Zero-point vibrational energy     547183.9 (Joules/Mol)
                                  130.78008 (Kcal/Mol)
 Warning -- explicit consideration of  17 degrees of freedom as
           vibrations may cause significant error
 Vibrational temperatures:     46.18    59.78   106.37   113.13   143.26
          (Kelvin)            189.06   214.54   302.52   369.64   398.17
                              400.47   490.11   549.00   626.85   712.74
                              782.10   863.49  1103.54  1160.84  1214.95
                             1233.76  1313.13  1328.49  1394.39  1457.23
                             1519.33  1533.31  1566.46  1615.91  1631.02
                             1674.31  1704.08  1734.01  1777.84  1801.33
                             1844.16  1880.31  1896.35  1906.69  1934.70
                             2014.36  2040.75  2094.34  2108.02  2135.91
                             2141.90  2154.53  2161.87  2180.56  2213.10
                             2367.99  2404.41  4185.33  4209.34  4237.01
                             4301.01  4346.18  4379.37  4428.74  4432.85
                             4446.51  4467.87  4488.23  4878.97  5042.01
                             5167.45

 Zero-point correction=                           0.208411 (Hartree/Particle)
 Thermal correction to Energy=                    0.220860
 Thermal correction to Enthalpy=                  0.221805
 Thermal correction to Gibbs Free Energy=         0.168099
 Sum of electronic and zero-point Energies=           -492.879060
 Sum of electronic and thermal Energies=              -492.866611
 Sum of electronic and thermal Enthalpies=            -492.865666
 Sum of electronic and thermal Free Energies=         -492.919372

                     E (Thermal)             CV                S
                      KCal/Mol        Cal/Mol-Kelvin    Cal/Mol-Kelvin
 Total                  138.592             42.842            113.033
 Electronic               0.000              0.000              0.000
 Translational            0.889              2.981             40.848
 Rotational               0.889              2.981             30.653
 Vibrational            136.815             36.880             41.531
 Vibration     1          0.594              1.983              5.696
 Vibration     2          0.594              1.981              5.184
 Vibration     3          0.599              1.966              4.046
 Vibration     4          0.600              1.964              3.925
 Vibration     5          0.604              1.949              3.463
 Vibration     6          0.612              1.922              2.925
 Vibration     7          0.618              1.904              2.683
 Vibration     8          0.642              1.825              2.041
 Vibration     9          0.666              1.751              1.683
 Vibration    10          0.678              1.716              1.554
 Vibration    11          0.679              1.714              1.544
 Vibration    12          0.720              1.594              1.209
 Vibration    13          0.751              1.509              1.033
 Vibration    14          0.796              1.392              0.840
 Vibration    15          0.851              1.260              0.670
 Vibration    16          0.899              1.154              0.558
 Vibration    17          0.958              1.031              0.449

 Optimization completed.
    -- Stationary point found.
 Normal termination of Gaussian 16 at Tue Jun  1 07:34:38 2021.
