 Gaussian 16, Revision A.03,
 Gaussian 16:  ES64L-G16RevA.03 25-Dec-2016

 -----------------------------
 # opt freq b3lyp/6-31g(2df,p)
 -----------------------------

 -------------------
 Title Card Required
 -------------------
 Symbolic Z-matrix:
 Charge =  0 Multiplicity = 1

 SCF Done:  E(RB3LYP) =  -400.677350567     A.U. after   14 cycles
 SCF Done:  E(RB3LYP) =  -400.701468258     A.U. after   12 cycles
 SCF Done:  E(RB3LYP) =  -400.702515856     A.U. after   12 cycles
 SCF Done:  E(RB3LYP) =  -400.702696372     A.U. after   10 cycles
 SCF Done:  E(RB3LYP) =  -400.702727635     A.U. after    9 cycles
 SCF Done:  E(RB3LYP) =  -400.702735416     A.U. after    9 cycles
 SCF Done:  E(RB3LYP) =  -400.702737460     A.U. after    9 cycles
 SCF Done:  E(RB3LYP) =  -400.702738450     A.U. after    8 cycles
 SCF Done:  E(RB3LYP) =  -400.702738909     A.U. after    8 cycles
 SCF Done:  E(RB3LYP) =  -400.702738983     A.U. after    7 cycles
 SCF Done:  E(RB3LYP) =  -400.702739006     A.U. after    7 cycles
 Optimization completed.
    -- Stationary point found.
 Normal termination of Gaussian 16 at Tue Jun  1 03:00:35 2021.

 ----------------------------------------------------------------------
 #N Geom=AllCheck Guess=TCheck SCRF=Check GenChk RB3LYP/6-31G(2df,p) Fr
 eq
 ----------------------------------------------------------------------

 Structure from the checkpoint file:  "CNpCpCCNCCtN.chk"
 -------------------
 Title Card Required
 -------------------
 Charge =  0 Multiplicity = 1

                         Standard orientation:
 ---------------------------------------------------------------------
 Center     Atomic      Atomic             Coordinates (Angstroms)
 Number     Number       Type             X           Y           Z
 ---------------------------------------------------------------------
      1          6           0       -3.462606   -1.068666   -0.108758
      2          7           0       -2.450854   -0.035567   -0.272964
      3          6           0       -2.882747    1.214618    0.335476
      4          6           0       -1.149226   -0.480974    0.208766
      5          6           0        0.003427    0.391203   -0.295576
      6          7           0        1.280239   -0.197202    0.101542
      7          6           0        2.421921    0.606416   -0.314859
      8          6           0        3.685515   -0.038192    0.054634
      9          7           0        4.682298   -0.555786    0.323614
     10          1           0       -4.408625   -0.729320   -0.542199
     11          1           0       -3.651583   -1.333113    0.949653
     12          1           0       -3.156066   -1.978320   -0.634419
     13          1           0       -3.849396    1.509130   -0.084062
     14          1           0       -2.172543    2.017081    0.119846
     15          1           0       -2.995855    1.144134    1.434950
     16          1           0       -0.992188   -1.500945   -0.164652
     17          1           0       -1.100589   -0.539624    1.312832
     18          1           0       -0.047832    1.391233    0.151354
     19          1           0       -0.099996    0.523033   -1.387239
     20          1           0        1.367929   -1.130219   -0.289730
     21          1           0        2.371613    1.579646    0.189689
     22          1           0        2.455636    0.820726   -1.399455
 ---------------------------------------------------------------------

 SCF Done:  E(RB3LYP) =  -400.702739006     A.U. after    1 cycles

 The electronic state is 1-A.
 Alpha  occ. eigenvalues --  -14.33987 -14.33046 -14.32701 -10.26116 -10.22178
 Alpha  occ. eigenvalues --  -10.21926 -10.21326 -10.20528 -10.20459  -0.93878
 Alpha  occ. eigenvalues --   -0.92279  -0.89746  -0.77143  -0.71066  -0.70919
 Alpha  occ. eigenvalues --   -0.64202  -0.59020  -0.53561  -0.50190  -0.49389
 Alpha  occ. eigenvalues --   -0.47539  -0.45637  -0.45015  -0.43664  -0.41116
 Alpha  occ. eigenvalues --   -0.39370  -0.38119  -0.37153  -0.36513  -0.35512
 Alpha  occ. eigenvalues --   -0.34896  -0.33121  -0.32644  -0.24868  -0.21968
 Alpha virt. eigenvalues --    0.02189   0.03983   0.07310   0.08374   0.09252
 Alpha virt. eigenvalues --    0.11888   0.13550   0.13880   0.14676   0.14786
 Alpha virt. eigenvalues --    0.15766   0.16523   0.17206   0.17959   0.18687

 Mulliken charges:
               1
     1  C   -0.314656
     2  N   -0.054097
     3  C   -0.318057
     4  C   -0.143436
     5  C   -0.140412
     6  N   -0.299223
     7  C   -0.258393
     8  C    0.255592
     9  N   -0.297495
    10  H    0.118403
    11  H    0.093267
    12  H    0.117400
    13  H    0.120301
    14  H    0.119300
    15  H    0.093426
    16  H    0.094152
    17  H    0.092070
    18  H    0.107520
    19  H    0.094997
    20  H    0.230898
    21  H    0.156757
    22  H    0.131685
 Sum of Mulliken charges =  -0.00000

 Dipole moment (field-independent basis, Debye):
    X=             -3.7994    Y=              1.2803    Z=             -1.1975  Tot=              4.1843
 Quadrupole moment (field-independent basis, Debye-Ang):
   XX=            -76.7301   YY=            -52.9334   ZZ=            -57.7609
   XY=              6.3162   XZ=             -5.7718   YZ=              1.5480

  Exact polarizability: 112.177  -3.811  77.353   1.766  -0.930  67.185
 Approx polarizability: 135.957 -11.613 114.699   5.961  -2.911 104.105

                      1                      2                      3
                      A                      A                      A
 Frequencies --     36.0075                61.2781                81.3726
 Red. masses --      3.3616                 2.4700                 4.9118
 Frc consts  --      0.0026                 0.0055                 0.0192
 IR Inten    --      5.6048                 1.9968                 3.3252

                      4                      5                      6
                      A                      A                      A
 Frequencies --    118.4779               135.1171               184.1196
 Red. masses --      2.4831                 2.2412                 4.1558
 Frc consts  --      0.0205                 0.0241                 0.0830
 IR Inten    --      3.2741                 0.3944                 2.6213

                      7                      8                      9
                      A                      A                      A
 Frequencies --    242.3146               250.0211               300.2288
 Red. masses --      1.0974                 1.2664                 2.8038
 Frc consts  --      0.0380                 0.0466                 0.1489
 IR Inten    --      0.6688                 0.3523                 0.8734

                     10                     11                     12
                      A                      A                      A
 Frequencies --    334.1995               372.5098               394.2688
 Red. masses --      3.7049                 2.1898                 3.6984
 Frc consts  --      0.2438                 0.1790                 0.3387
 IR Inten    --      0.9844                 4.4289                 2.1308

                     13                     14                     15
                      A                      A                      A
 Frequencies --    466.3987               477.1331               583.5172
 Red. masses --      2.4274                 3.1056                 5.9573
 Frc consts  --      0.3111                 0.4166                 1.1951
 IR Inten    --      0.3268                 4.6554                 1.6694

                     16                     17                     18
                      A                      A                      A
 Frequencies --    775.7969               817.9384               861.0121
 Red. masses --      1.2274                 1.1867                 3.9311
 Frc consts  --      0.4352                 0.4678                 1.7171
 IR Inten    --     80.8505                 5.6557                15.7938

                     19                     20                     21
                      A                      A                      A
 Frequencies --    941.8788               996.0913              1029.5706
 Red. masses --      4.0645                 1.7228                 2.7486
 Frc consts  --      2.1244                 1.0071                 1.7166
 IR Inten    --      1.5293                10.1345                 4.8921

                     22                     23                     24
                      A                      A                      A
 Frequencies --   1063.9415              1072.3122              1087.9196
 Red. masses --      1.7368                 1.9863                 2.7494
 Frc consts  --      1.1583                 1.3457                 1.9172
 IR Inten    --     25.4193                11.6729                13.2841

                     25                     26                     27
                      A                      A                      A
 Frequencies --   1118.7571              1124.6901              1149.6421
 Red. masses --      1.4050                 1.5213                 3.8854
 Frc consts  --      1.0361                 1.1338                 3.0256
 IR Inten    --      0.8953                 8.2409                57.6648

                     28                     29                     30
                      A                      A                      A
 Frequencies --   1184.9242              1206.3333              1264.1145
 Red. masses --      1.4221                 1.3967                 1.7832
 Frc consts  --      1.1764                 1.1975                 1.6789
 IR Inten    --     10.9000                16.1065                 8.9282

                     31                     32                     33
                      A                      A                      A
 Frequencies --   1284.6903              1306.5178              1323.7887
 Red. masses --      1.2838                 2.4624                 1.1582
 Frc consts  --      1.2483                 2.4765                 1.1958
 IR Inten    --     21.2796                17.1310                11.9350

                     34                     35                     36
                      A                      A                      A
 Frequencies --   1338.2219              1389.3302              1430.6763
 Red. masses --      1.3282                 1.4114                 1.4377
 Frc consts  --      1.4015                 1.6051                 1.7339
 IR Inten    --     12.4777                 4.7030                 9.2984

                     37                     38                     39
                      A                      A                      A
 Frequencies --   1445.3349              1474.0914              1482.8751
 Red. masses --      1.1661                 1.1683                 1.0538
 Frc consts  --      1.4352                 1.4957                 1.3653
 IR Inten    --      1.4964                 0.3880                10.0533

                     40                     41                     42
                      A                      A                      A
 Frequencies --   1489.2178              1491.2153              1498.5750
 Red. masses --      1.0725                 1.0748                 1.1009
 Frc consts  --      1.4015                 1.4082                 1.4566
 IR Inten    --      3.0734                 6.2843                 6.7274

                     43                     44                     45
                      A                      A                      A
 Frequencies --   1501.9950              1506.4854              1512.5421
 Red. masses --      1.1345                 1.1058                 1.0555
 Frc consts  --      1.5079                 1.4786                 1.4228
 IR Inten    --     21.0005                 8.8642                 9.0049

                     46                     47                     48
                      A                      A                      A
 Frequencies --   1523.5232              2368.9525              2917.5719
 Red. masses --      1.0833                12.6239                 1.0604
 Frc consts  --      1.4815                41.7404                 5.3182
 IR Inten    --      3.0010                 3.6375                40.3802

                     49                     50                     51
                      A                      A                      A
 Frequencies --   2921.0510              2931.6414              2932.2159
 Red. masses --      1.0661                 1.0663                 1.0723
 Frc consts  --      5.3597                 5.3994                 5.4321
 IR Inten    --     36.8922               114.3364                29.9739

                     52                     53                     54
                      A                      A                      A
 Frequencies --   2951.5163              3031.3513              3045.2896
 Red. masses --      1.0705                 1.0856                 1.0845
 Frc consts  --      5.4946                 5.8776                 5.9257
 IR Inten    --     98.7541                 5.4297                 6.9595

                     55                     56                     57
                      A                      A                      A
 Frequencies --   3053.6926              3059.4136              3071.0228
 Red. masses --      1.0902                 1.0707                 1.0708
 Frc consts  --      5.9898                 5.9048                 5.9500
 IR Inten    --     34.3938                44.1503                34.3037

                     58                     59                     60
                      A                      A                      A
 Frequencies --   3103.6272              3112.9550              3514.5399
 Red. masses --      1.1030                 1.1018                 1.0739
 Frc consts  --      6.2601                 6.2905                 7.8156
 IR Inten    --     29.3324                35.4427                 1.1347

 - Thermochemistry -
 -------------------
 Temperature   298.150 Kelvin.  Pressure   1.00000 Atm.
 Atom     1 has atomic number  6 and mass  12.00000

 Molecular mass:   127.11095 amu.
 Principal axes and moments of inertia in atomic units:
                           1         2         3
     Eigenvalues --   303.309123603.252023789.40286
           X            0.99994   0.00726  -0.00786
           Y           -0.00717   0.99991   0.01116
           Z            0.00794  -0.01110   0.99991
 This molecule is an asymmetric top.
 Rotational symmetry number  1.
 Rotational temperatures (Kelvin)      0.28556     0.02404     0.02286
 Rotational constants (GHZ):           5.95017     0.50086     0.47626
 Zero-point vibrational energy     506892.5 (Joules/Mol)
                                  121.15022 (Kcal/Mol)
 Warning -- explicit consideration of  15 degrees of freedom as
           vibrations may cause significant error
 Vibrational temperatures:     51.81    88.17   117.08   170.46   194.40
          (Kelvin)            264.91   348.64   359.72   431.96   480.84
                              535.96   567.26   671.04   686.49   839.55
                             1116.20  1176.83  1238.80  1355.15  1433.15
                             1481.32  1530.77  1542.82  1565.27  1609.64
                             1618.18  1654.08  1704.84  1735.64  1818.78
                             1848.38  1879.79  1904.64  1925.40  1998.94
                             2058.42  2079.51  2120.89  2133.53  2142.65
                             2145.53  2156.12  2161.04  2167.50  2176.21
                             2192.01  3408.39  4197.74  4202.74  4217.98
                             4218.80  4246.57  4361.44  4381.49  4393.58
                             4401.81  4418.52  4465.43  4478.85  5056.64

 Zero-point correction=                           0.193065 (Hartree/Particle)
 Thermal correction to Energy=                    0.204038
 Thermal correction to Enthalpy=                  0.204982
 Thermal correction to Gibbs Free Energy=         0.155539
 Sum of electronic and zero-point Energies=           -400.509674
 Sum of electronic and thermal Energies=              -400.498701
 Sum of electronic and thermal Enthalpies=            -400.497757
 Sum of electronic and thermal Free Energies=         -400.547200

                     E (Thermal)             CV                S
                      KCal/Mol        Cal/Mol-Kelvin    Cal/Mol-Kelvin
 Total                  128.036             37.958            104.061
 Electronic               0.000              0.000              0.000
 Translational            0.889              2.981             40.433
 Rotational               0.889              2.981             29.806
 Vibrational            126.258             31.996             33.823
 Vibration     1          0.594              1.982              5.467
 Vibration     2          0.597              1.973              4.416
 Vibration     3          0.600              1.962              3.857
 Vibration     4          0.609              1.934              3.125
 Vibration     5          0.613              1.918              2.872
 Vibration     6          0.631              1.861              2.286
 Vibration     7          0.659              1.775              1.786
 Vibration     8          0.663              1.763              1.730
 Vibration     9          0.693              1.673              1.416
 Vibration    10          0.716              1.607              1.240
 Vibration    11          0.744              1.529              1.069
 Vibration    12          0.761              1.482              0.984
 Vibration    13          0.824              1.325              0.748
 Vibration    14          0.834              1.301              0.718
 Vibration    15          0.940              1.067              0.479

 Optimization completed.
    -- Stationary point found.
 Normal termination of Gaussian 16 at Tue Jun  1 03:30:58 2021.
