 Gaussian 16, Revision A.03,
 Gaussian 16:  ES64L-G16RevA.03 25-Dec-2016

 -----------------------------
 # opt freq b3lyp/6-31g(2df,p)
 -----------------------------

 -------------------
 Title Card Required
 -------------------
 Symbolic Z-matrix:
 Charge =  0 Multiplicity = 1

 SCF Done:  E(RB3LYP) =  -432.663490203     A.U. after   19 cycles
 SCF Done:  E(RB3LYP) =  -432.674286015     A.U. after   14 cycles
 SCF Done:  E(RB3LYP) =  -432.677931140     A.U. after   14 cycles
 SCF Done:  E(RB3LYP) =  -432.683226651     A.U. after   16 cycles
 SCF Done:  E(RB3LYP) =  -432.687140832     A.U. after   16 cycles
 SCF Done:  E(RB3LYP) =  -432.688957912     A.U. after   14 cycles
 SCF Done:  E(RB3LYP) =  -432.690662194     A.U. after   13 cycles
 SCF Done:  E(RB3LYP) =  -432.693552710     A.U. after   14 cycles
 SCF Done:  E(RB3LYP) =  -432.695583860     A.U. after   13 cycles
 SCF Done:  E(RB3LYP) =  -432.698693712     A.U. after   13 cycles
 SCF Done:  E(RB3LYP) =  -432.702159454     A.U. after   13 cycles
 SCF Done:  E(RB3LYP) =  -432.702237845     A.U. after   12 cycles
 SCF Done:  E(RB3LYP) =  -432.702257387     A.U. after   11 cycles
 SCF Done:  E(RB3LYP) =  -432.702271183     A.U. after   11 cycles
 SCF Done:  E(RB3LYP) =  -432.702274433     A.U. after   10 cycles
 SCF Done:  E(RB3LYP) =  -432.702280234     A.U. after   11 cycles
 SCF Done:  E(RB3LYP) =  -432.702283056     A.U. after   11 cycles
 SCF Done:  E(RB3LYP) =  -432.702283732     A.U. after    9 cycles
 SCF Done:  E(RB3LYP) =  -432.702283779     A.U. after    7 cycles
 Optimization completed.
    -- Stationary point found.
 Normal termination of Gaussian 16 at Tue Jun  1 04:27:02 2021.

 ----------------------------------------------------------------------
 #N Geom=AllCheck Guess=TCheck SCRF=Check GenChk RB3LYP/6-31G(2df,p) Fr
 eq
 ----------------------------------------------------------------------

 Structure from the checkpoint file:  "CNpCdCNpNCNdN.chk"
 -------------------
 Title Card Required
 -------------------
 Charge =  0 Multiplicity = 1

                         Standard orientation:
 ---------------------------------------------------------------------
 Center     Atomic      Atomic             Coordinates (Angstroms)
 Number     Number       Type             X           Y           Z
 ---------------------------------------------------------------------
      1          6           0       -0.774256    2.016078   -0.444446
      2          7           0       -0.506255    0.956226    0.506014
      3          6           0       -1.340967   -0.177812    0.490338
      4          6           0       -2.410223   -0.379973   -0.292826
      5          7           0       -3.376804   -1.385675   -0.095889
      6          7           0        0.886778    0.712135    0.660596
      7          6           0        1.453134   -0.245930   -0.297402
      8          7           0        2.710212   -0.725900    0.274646
      9          7           0        3.651561   -0.707526   -0.533465
     10          1           0       -1.793867    2.383770   -0.291929
     11          1           0       -0.681021    1.703965   -1.499735
     12          1           0       -0.065883    2.824401   -0.258899
     13          1           0       -1.106528   -0.890631    1.280870
     14          1           0       -2.661463    0.313536   -1.087987
     15          1           0       -3.065277   -2.115617    0.534332
     16          1           0       -3.687814   -1.804373   -0.963976
     17          1           0        1.039538    0.352563    1.599329
     18          1           0        1.610164    0.224202   -1.274759
     19          1           0        0.810094   -1.133992   -0.424809
     20          1           0        4.477480   -1.076823   -0.029734
 ---------------------------------------------------------------------

 SCF Done:  E(RB3LYP) =  -432.702283779     A.U. after    1 cycles

 The electronic state is 1-A.
 Alpha  occ. eigenvalues --  -14.38633 -14.37576 -14.35341 -14.34329 -14.32861
 Alpha  occ. eigenvalues --  -10.22805 -10.20075 -10.19937 -10.19159  -1.03331
 Alpha  occ. eigenvalues --   -0.98097  -0.89763  -0.83377  -0.73888  -0.72051
 Alpha  occ. eigenvalues --   -0.64869  -0.60158  -0.56758  -0.53060  -0.49631
 Alpha  occ. eigenvalues --   -0.49387  -0.46664  -0.45924  -0.45402  -0.42630
 Alpha  occ. eigenvalues --   -0.40561  -0.38832  -0.37858  -0.36744  -0.36666
 Alpha  occ. eigenvalues --   -0.32956  -0.27056  -0.23946  -0.23321  -0.17305
 Alpha virt. eigenvalues --   -0.04575   0.05142   0.08351   0.10182   0.10440
 Alpha virt. eigenvalues --    0.10678   0.12806   0.13868   0.15294   0.15666
 Alpha virt. eigenvalues --    0.17392   0.18325   0.19314   0.20570   0.21824

 Mulliken charges:
               1
     1  C   -0.305658
     2  N   -0.055434
     3  C   -0.033339
     4  C   -0.061891
     5  N   -0.517600
     6  N   -0.300906
     7  C   -0.036153
     8  N   -0.123640
     9  N   -0.271032
    10  H    0.126308
    11  H    0.097652
    12  H    0.133319
    13  H    0.075530
    14  H    0.094593
    15  H    0.237224
    16  H    0.241792
    17  H    0.233094
    18  H    0.113167
    19  H    0.107735
    20  H    0.245240
 Sum of Mulliken charges =  -0.00000

 Dipole moment (field-independent basis, Debye):
    X=             -0.4904    Y=             -1.7968    Z=             -0.5571  Tot=              1.9440
 Quadrupole moment (field-independent basis, Debye-Ang):
   XX=            -54.6155   YY=            -50.3856   ZZ=            -54.1398
   XY=              1.1467   XZ=              5.9562   YZ=             -1.6526

  Exact polarizability: 129.182   4.769  74.077   6.162  -3.121  65.036
 Approx polarizability: 174.264  10.279 103.887  11.835  -1.213 106.613

                      1                      2                      3
                      A                      A                      A
 Frequencies --     34.2402                63.5543                97.4231
 Red. masses --      3.4136                 4.9099                 4.3192
 Frc consts  --      0.0024                 0.0117                 0.0242
 IR Inten    --      0.4318                 0.1766                 4.1945

                      4                      5                      6
                      A                      A                      A
 Frequencies --    138.7857               165.1021               190.5840
 Red. masses --      2.7810                 1.8145                 2.3277
 Frc consts  --      0.0316                 0.0291                 0.0498
 IR Inten    --      1.5161                 9.6156                 7.4285

                      7                      8                      9
                      A                      A                      A
 Frequencies --    264.5466               276.3760               316.8132
 Red. masses --      2.6361                 1.2781                 1.6657
 Frc consts  --      0.1087                 0.0575                 0.0985
 IR Inten    --      3.3826                 5.1349                31.5028

                     10                     11                     12
                      A                      A                      A
 Frequencies --    332.2098               385.3466               442.9194
 Red. masses --      2.7593                 2.7384                 3.1003
 Frc consts  --      0.1794                 0.2396                 0.3583
 IR Inten    --     17.4662                15.6416                 5.5831

                     13                     14                     15
                      A                      A                      A
 Frequencies --    519.7424               563.5618               590.8315
 Red. masses --      3.5427                 3.1079                 3.4978
 Frc consts  --      0.5638                 0.5816                 0.7194
 IR Inten    --     34.0209                 5.6226                 7.1226

                     16                     17                     18
                      A                      A                      A
 Frequencies --    754.3867               776.5061               824.6087
 Red. masses --      1.4269                 1.6854                 1.9186
 Frc consts  --      0.4784                 0.5987                 0.7686
 IR Inten    --    383.4652                68.8489                23.3906

                     19                     20                     21
                      A                      A                      A
 Frequencies --    864.6625               883.4552               957.7249
 Red. masses --      1.1907                 3.2192                 1.1170
 Frc consts  --      0.5245                 1.4803                 0.6037
 IR Inten    --     42.6048                 8.0822                33.6368

                     22                     23                     24
                      A                      A                      A
 Frequencies --    979.4446              1058.5060              1097.5902
 Red. masses --      3.5753                 2.0342                 1.5657
 Frc consts  --      2.0208                 1.3428                 1.1114
 IR Inten    --     13.1111                 8.9465                10.7276

                     25                     26                     27
                      A                      A                      A
 Frequencies --   1120.4335              1137.1540              1151.4040
 Red. masses --      2.0321                 2.3419                 1.3661
 Frc consts  --      1.5030                 1.7842                 1.0671
 IR Inten    --     32.8546                94.2866                 4.5949

                     28                     29                     30
                      A                      A                      A
 Frequencies --   1186.3789              1215.2617              1255.5261
 Red. masses --      2.0600                 1.1703                 2.3345
 Frc consts  --      1.7083                 1.0184                 2.1682
 IR Inten    --      3.8819                13.7924                50.6280

                     31                     32                     33
                      A                      A                      A
 Frequencies --   1312.3967              1340.1968              1358.9298
 Red. masses --      3.2192                 1.2374                 1.3364
 Frc consts  --      3.2668                 1.3095                 1.4541
 IR Inten    --     15.4133                 2.4330                 4.1423

                     34                     35                     36
                      A                      A                      A
 Frequencies --   1383.2295              1440.3218              1486.4646
 Red. masses --      1.3839                 1.1594                 1.0738
 Frc consts  --      1.5601                 1.4171                 1.3980
 IR Inten    --      7.0321                 2.3104                15.0167

                     37                     38                     39
                      A                      A                      A
 Frequencies --   1493.0150              1498.2203              1502.8717
 Red. masses --      1.2087                 1.2089                 1.1423
 Frc consts  --      1.5875                 1.5988                 1.5201
 IR Inten    --     23.6649                 7.4931                 4.5348

                     40                     41                     42
                      A                      A                      A
 Frequencies --   1515.5225              1647.0969              1654.1004
 Red. masses --      1.0556                 1.1535                 8.4629
 Frc consts  --      1.4285                 1.8438                13.6425
 IR Inten    --      7.0783                34.9453                20.0683

                     43                     44                     45
                      A                      A                      A
 Frequencies --   1732.6894              2945.1478              2956.1736
 Red. masses --      4.7720                 1.0597                 1.0648
 Frc consts  --      8.4410                 5.4158                 5.4824
 IR Inten    --     22.4760                55.5943                31.6918

                     46                     47                     48
                      A                      A                      A
 Frequencies --   3057.9139              3069.2792              3121.7663
 Red. masses --      1.0944                 1.0747                 1.0883
 Frc consts  --      6.0293                 5.9653                 6.2487
 IR Inten    --     21.8067                32.7763                23.8171

                     49                     50                     51
                      A                      A                      A
 Frequencies --   3139.0822              3189.8332              3245.2404
 Red. masses --      1.0998                 1.0884                 1.0738
 Frc consts  --      6.3853                 6.5248                 6.6627
 IR Inten    --     11.2262                12.5212                27.7476

                     52                     53                     54
                      A                      A                      A
 Frequencies --   3495.6376              3514.6791              3609.2622
 Red. masses --      1.0738                 1.0475                 1.0957
 Frc consts  --      7.7311                 7.6236                 8.4093
 IR Inten    --      1.0929                 2.6705                 3.3727

 - Thermochemistry -
 -------------------
 Temperature   298.150 Kelvin.  Pressure   1.00000 Atm.
 Atom     1 has atomic number  6 and mass  12.00000

 Molecular mass:   129.10145 amu.
 Principal axes and moments of inertia in atomic units:
                           1         2         3
     Eigenvalues --   620.751332429.103652815.03511
           X            0.99996   0.00544   0.00660
           Y           -0.00519   0.99929  -0.03734
           Z           -0.00680   0.03730   0.99928
 This molecule is an asymmetric top.
 Rotational symmetry number  1.
 Warning -- assumption of classical behavior for rotation
           may cause significant error
 Rotational temperatures (Kelvin)      0.13953     0.03566     0.03077
 Rotational constants (GHZ):           2.90735     0.74297     0.64111
 Zero-point vibrational energy     444736.6 (Joules/Mol)
                                  106.29459 (Kcal/Mol)
 Warning -- explicit consideration of  15 degrees of freedom as
           vibrations may cause significant error
 Vibrational temperatures:     49.26    91.44   140.17   199.68   237.55
          (Kelvin)            274.21   380.62   397.64   455.82   477.98
                              554.43   637.26   747.79   810.84   850.07
                             1085.39  1117.22  1186.43  1244.06  1271.10
                             1377.95  1409.20  1522.95  1579.19  1612.05
                             1636.11  1656.61  1706.93  1748.49  1806.42
                             1888.25  1928.24  1955.20  1990.16  2072.30
                             2138.69  2148.12  2155.60  2162.30  2180.50
                             2369.81  2379.88  2492.95  4237.41  4253.27
                             4399.66  4416.01  4491.53  4516.44  4589.46
                             4669.18  5029.44  5056.84  5192.92

 Zero-point correction=                           0.169391 (Hartree/Particle)
 Thermal correction to Energy=                    0.180036
 Thermal correction to Enthalpy=                  0.180980
 Thermal correction to Gibbs Free Energy=         0.132407
 Sum of electronic and zero-point Energies=           -432.532893
 Sum of electronic and thermal Energies=              -432.522248
 Sum of electronic and thermal Enthalpies=            -432.521304
 Sum of electronic and thermal Free Energies=         -432.569877

                     E (Thermal)             CV                S
                      KCal/Mol        Cal/Mol-Kelvin    Cal/Mol-Kelvin
 Total                  112.974             37.428            102.231
 Electronic               0.000              0.000              0.000
 Translational            0.889              2.981             40.479
 Rotational               0.889              2.981             29.830
 Vibrational            111.197             31.467             31.921
 Vibration     1          0.594              1.983              5.567
 Vibration     2          0.597              1.972              4.344
 Vibration     3          0.603              1.951              3.505
 Vibration     4          0.614              1.915              2.821
 Vibration     5          0.623              1.885              2.491
 Vibration     6          0.634              1.853              2.222
 Vibration     7          0.671              1.738              1.632
 Vibration     8          0.678              1.717              1.556
 Vibration     9          0.704              1.641              1.327
 Vibration    10          0.714              1.611              1.249
 Vibration    11          0.754              1.501              1.018
 Vibration    12          0.803              1.377              0.817
 Vibration    13          0.875              1.206              0.611
 Vibration    14          0.919              1.110              0.517
 Vibration    15          0.948              1.051              0.466

 Optimization completed.
    -- Stationary point found.
 Normal termination of Gaussian 16 at Tue Jun  1 04:55:11 2021.
