 Gaussian 16, Revision A.03,
 Gaussian 16:  ES64L-G16RevA.03 25-Dec-2016

 -----------------------------
 # opt freq b3lyp/6-31g(2df,p)
 -----------------------------

 -------------------
 Title Card Required
 -------------------
 Symbolic Z-matrix:
 Charge =  0 Multiplicity = 1

 SCF Done:  E(RB3LYP) =  -511.358385933     A.U. after   13 cycles
 SCF Done:  E(RB3LYP) =  -511.366112743     A.U. after   13 cycles
 SCF Done:  E(RB3LYP) =  -511.369221520     A.U. after   13 cycles
 SCF Done:  E(RB3LYP) =  -511.373644350     A.U. after   14 cycles
 SCF Done:  E(RB3LYP) =  -511.375966210     A.U. after   13 cycles
 SCF Done:  E(RB3LYP) =  -511.376524712     A.U. after   13 cycles
 SCF Done:  E(RB3LYP) =  -511.376716988     A.U. after   10 cycles
 SCF Done:  E(RB3LYP) =  -511.376861638     A.U. after   11 cycles
 SCF Done:  E(RB3LYP) =  -511.377450418     A.U. after   13 cycles
 SCF Done:  E(RB3LYP) =  -511.346706027     A.U. after   14 cycles
 SCF Done:  E(RB3LYP) =  -511.381094051     A.U. after   11 cycles
 SCF Done:  E(RB3LYP) =  -511.381932833     A.U. after   12 cycles
 SCF Done:  E(RB3LYP) =  -511.382507683     A.U. after   12 cycles
 SCF Done:  E(RB3LYP) =  -511.382586846     A.U. after   11 cycles
 SCF Done:  E(RB3LYP) =  -511.382606501     A.U. after    9 cycles
 SCF Done:  E(RB3LYP) =  -511.382608451     A.U. after    9 cycles
 SCF Done:  E(RB3LYP) =  -511.382608713     A.U. after    7 cycles
 SCF Done:  E(RB3LYP) =  -511.382608769     A.U. after    7 cycles
 SCF Done:  E(RB3LYP) =  -511.382608784     A.U. after    6 cycles
 Optimization completed.
    -- Stationary point found.
 Normal termination of Gaussian 16 at Tue Jun  1 16:36:47 2021.

 ----------------------------------------------------------------------
 #N Geom=AllCheck Guess=TCheck SCRF=Check GenChk RB3LYP/6-31G(2df,p) Fr
 eq
 ----------------------------------------------------------------------

 Structure from the checkpoint file:  "CNpCNCCCNpNCtN.chk"
 -------------------
 Title Card Required
 -------------------
 Charge =  0 Multiplicity = 1

                         Standard orientation:
 ---------------------------------------------------------------------
 Center     Atomic      Atomic             Coordinates (Angstroms)
 Number     Number       Type             X           Y           Z
 ---------------------------------------------------------------------
      1          6           0       -1.917676    1.089312   -1.433980
      2          7           0       -1.710579    0.403951   -0.163265
      3          6           0       -0.917834    1.173701    0.805079
      4          7           0        0.437473    1.294185    0.324723
      5          6           0        1.270475    0.111833    0.545797
      6          6           0        2.661237    0.300838   -0.054712
      7          6           0        3.562182   -0.919814    0.133484
      8          7           0        4.894925   -0.661027   -0.421236
      9          7           0       -2.935685    0.016317    0.434316
     10          6           0       -3.378861   -1.211216    0.121012
     11          7           0       -3.768272   -2.282381   -0.099926
     12          1           0       -0.942704    1.404685   -1.807172
     13          1           0       -2.561134    1.982807   -1.327431
     14          1           0       -2.378663    0.403714   -2.149051
     15          1           0       -1.013562    0.637074    1.761608
     16          1           0       -1.325946    2.191782    0.943509
     17          1           0        0.875268    2.118451    0.718422
     18          1           0        0.765206   -0.735891    0.070852
     19          1           0        1.357445   -0.135999    1.620296
     20          1           0        3.155675    1.170160    0.397870
     21          1           0        2.556171    0.524286   -1.124303
     22          1           0        3.062228   -1.806064   -0.296200
     23          1           0        3.681973   -1.121522    1.205410
     24          1           0        4.829644   -0.570273   -1.431711
     25          1           0        5.498573   -1.460407   -0.253507
     26          1           0       -3.662347    0.731954    0.449054
 ---------------------------------------------------------------------

 SCF Done:  E(RB3LYP) =  -511.382608784     A.U. after    1 cycles

 The electronic state is 1-A.
 Alpha  occ. eigenvalues --  -14.40584 -14.37501 -14.32723 -14.31189 -14.30752
 Alpha  occ. eigenvalues --  -10.24526 -10.23472 -10.21388 -10.20778 -10.20589
 Alpha  occ. eigenvalues --  -10.18071  -1.02648  -0.92490  -0.88853  -0.87756
 Alpha  occ. eigenvalues --   -0.83564  -0.76224  -0.71058  -0.66151  -0.61672
 Alpha  occ. eigenvalues --   -0.59793  -0.59057  -0.53622  -0.50121  -0.48910
 Alpha  occ. eigenvalues --   -0.47526  -0.46517  -0.44433  -0.44398  -0.42320
 Alpha  occ. eigenvalues --   -0.40039  -0.39612  -0.38160  -0.37548  -0.35062
 Alpha  occ. eigenvalues --   -0.34917  -0.34499  -0.33568  -0.32246  -0.25983
 Alpha  occ. eigenvalues --   -0.25428  -0.24015  -0.23636
 Alpha virt. eigenvalues --    0.03028   0.06026   0.07714   0.08129   0.08563
 Alpha virt. eigenvalues --    0.10859   0.11802   0.12282   0.13308   0.13876
 Alpha virt. eigenvalues --    0.15008   0.15908   0.16524   0.17607   0.17993

 Mulliken charges:
               1
     1  C   -0.329183
     2  N   -0.062827
     3  C   -0.101745
     4  N   -0.295659
     5  C   -0.132393
     6  C   -0.173575
     7  C   -0.146376
     8  N   -0.510210
     9  N   -0.350642
    10  C    0.355618
    11  N   -0.337048
    12  H    0.153225
    13  H    0.091396
    14  H    0.141099
    15  H    0.103781
    16  H    0.078066
    17  H    0.222062
    18  H    0.125573
    19  H    0.081433
    20  H    0.100687
    21  H    0.098804
    22  H    0.083534
    23  H    0.103137
    24  H    0.222707
    25  H    0.225857
    26  H    0.252679
 Sum of Mulliken charges =  -0.00000

 Dipole moment (field-independent basis, Debye):
    X=              1.6913    Y=              3.9221    Z=              0.1629  Tot=              4.2743
 Quadrupole moment (field-independent basis, Debye-Ang):
   XX=            -75.1903   YY=            -72.8412   ZZ=            -64.7709
   XY=            -22.1731   XZ=             -2.9094   YZ=              1.4053

  Exact polarizability: 119.473   5.629 101.609  -0.409   0.616  83.739
 Approx polarizability: 140.756  13.562 157.353   0.388   4.559 124.683

                      1                      2                      3
                      A                      A                      A
 Frequencies --     31.0725                45.5895                59.3201
 Red. masses --      6.0647                 2.9174                 2.3697
 Frc consts  --      0.0034                 0.0036                 0.0049
 IR Inten    --      5.2864                 1.0903                 7.6896

                      4                      5                      6
                      A                      A                      A
 Frequencies --     77.6104               116.8456               135.4873
 Red. masses --      3.3888                 3.0711                 3.4073
 Frc consts  --      0.0120                 0.0247                 0.0369
 IR Inten    --      0.1063                 0.5255                 1.1237

                      7                      8                      9
                      A                      A                      A
 Frequencies --    142.5830               190.6742               248.5643
 Red. masses --      2.0771                 4.1909                 1.2712
 Frc consts  --      0.0249                 0.0898                 0.0463
 IR Inten    --      3.8184                 0.4232                10.2869

                     10                     11                     12
                      A                      A                      A
 Frequencies --    262.2686               292.0721               314.0476
 Red. masses --      1.1060                 2.3062                 3.2258
 Frc consts  --      0.0448                 0.1159                 0.1874
 IR Inten    --     18.5922                16.4821                 1.7300

                     13                     14                     15
                      A                      A                      A
 Frequencies --    354.4474               382.9051               411.5639
 Red. masses --      3.0845                 2.2694                 2.4558
 Frc consts  --      0.2283                 0.1960                 0.2451
 IR Inten    --      2.7231                11.3472                15.7519

                     16                     17                     18
                      A                      A                      A
 Frequencies --    457.3190               508.0989               547.3973
 Red. masses --      3.5794                 3.2351                 3.4048
 Frc consts  --      0.4411                 0.4921                 0.6011
 IR Inten    --      3.7634                13.9248                12.8741

                     19                     20                     21
                      A                      A                      A
 Frequencies --    590.6553               666.3111               737.9692
 Red. masses --      4.3059                 2.1154                 1.6389
 Frc consts  --      0.8851                 0.5533                 0.5259
 IR Inten    --     29.0301                75.4488                41.4813

                     22                     23                     24
                      A                      A                      A
 Frequencies --    769.6516               850.0193               881.5284
 Red. masses --      1.1115                 1.2245                 3.4014
 Frc consts  --      0.3879                 0.5213                 1.5573
 IR Inten    --      6.6331                65.5255                61.7186

                     25                     26                     27
                      A                      A                      A
 Frequencies --    909.3607               958.3934               994.1583
 Red. masses --      1.3655                 2.6096                 1.9663
 Frc consts  --      0.6653                 1.4123                 1.1450
 IR Inten    --     50.1198                11.9926                 5.0777

                     28                     29                     30
                      A                      A                      A
 Frequencies --   1016.7178              1054.7447              1071.0694
 Red. masses --      2.4790                 2.7318                 2.0177
 Frc consts  --      1.5098                 1.7906                 1.3638
 IR Inten    --      4.5601                 6.4023                 2.6343

                     31                     32                     33
                      A                      A                      A
 Frequencies --   1098.4033              1139.9786              1147.5733
 Red. masses --      2.2134                 2.0137                 1.8675
 Frc consts  --      1.5734                 1.5418                 1.4490
 IR Inten    --     18.4427                 4.7418                25.6910

                     34                     35                     36
                      A                      A                      A
 Frequencies --   1153.6729              1167.9443              1192.3464
 Red. masses --      2.2492                 3.0624                 1.4881
 Frc consts  --      1.7638                 2.4613                 1.2465
 IR Inten    --     22.1645                53.8549                19.7513

                     37                     38                     39
                      A                      A                      A
 Frequencies --   1201.8173              1245.9171              1271.2434
 Red. masses --      2.1676                 1.8792                 1.8164
 Frc consts  --      1.8447                 1.7187                 1.7295
 IR Inten    --     19.6322                12.7508                 2.4708

                     40                     41                     42
                      A                      A                      A
 Frequencies --   1303.5668              1312.1882              1321.0650
 Red. masses --      1.2517                 1.1457                 1.1896
 Frc consts  --      1.2532                 1.1623                 1.2232
 IR Inten    --      6.7661                 5.4028                 2.1011

                     43                     44                     45
                      A                      A                      A
 Frequencies --   1343.2548              1407.0546              1414.3362
 Red. masses --      1.2346                 1.3998                 1.2475
 Frc consts  --      1.3124                 1.6328                 1.4703
 IR Inten    --      0.8499                 9.5229                27.1879

                     46                     47                     48
                      A                      A                      A
 Frequencies --   1432.2218              1437.3423              1470.6913
 Red. masses --      1.3282                 1.3591                 1.2164
 Frc consts  --      1.6053                 1.6543                 1.5501
 IR Inten    --     26.8401                 4.7025                12.6299

                     49                     50                     51
                      A                      A                      A
 Frequencies --   1488.9425              1492.2417              1498.2647
 Red. masses --      1.1698                 1.0768                 1.1136
 Frc consts  --      1.5280                 1.4127                 1.4728
 IR Inten    --     10.5236                 0.3776                 6.4283

                     52                     53                     54
                      A                      A                      A
 Frequencies --   1502.6965              1512.9749              1515.5111
 Red. masses --      1.0873                 1.0933                 1.1393
 Frc consts  --      1.4466                 1.4745                 1.5418
 IR Inten    --      7.7538                 5.8193                 2.2138

                     55                     56                     57
                      A                      A                      A
 Frequencies --   1526.1899              1660.0699              2347.2298
 Red. masses --      1.0926                 1.0885                12.3835
 Frc consts  --      1.4995                 1.7673                40.1981
 IR Inten    --      0.1425                21.5844               115.5457

                     58                     59                     60
                      A                      A                      A
 Frequencies --   2927.4682              2930.3695              2937.9879
 Red. masses --      1.0720                 1.0634                 1.0600
 Frc consts  --      5.4130                 5.3803                 5.3910
 IR Inten    --     54.5117                50.8410               110.1607

                     61                     62                     63
                      A                      A                      A
 Frequencies --   2940.2606              2995.5304              3019.5458
 Red. masses --      1.0728                 1.0965                 1.0592
 Frc consts  --      5.4644                 5.7969                 5.6899
 IR Inten    --     65.5168                39.2047                24.6108

                     64                     65                     66
                      A                      A                      A
 Frequencies --   3036.1441              3057.3911              3076.5712
 Red. masses --      1.0875                 1.0938                 1.0951
 Frc consts  --      5.9064                 6.0243                 6.1072
 IR Inten    --     14.9421                26.4027                46.6925

                     67                     68                     69
                      A                      A                      A
 Frequencies --   3093.4014              3152.6335              3435.2698
 Red. masses --      1.0739                 1.1016                 1.0730
 Frc consts  --      6.0547                 6.4512                 7.4603
 IR Inten    --     16.0611                 4.5825                15.4638

                     70                     71                     72
                      A                      A                      A
 Frequencies --   3484.1681              3548.7925              3561.6507
 Red. masses --      1.0497                 1.0744                 1.0916
 Frc consts  --      7.5077                 7.9721                 8.1588
 IR Inten    --      0.9401                 1.2375                 0.1119

 - Thermochemistry -
 -------------------
 Temperature   298.150 Kelvin.  Pressure   1.00000 Atm.
 Atom     1 has atomic number  6 and mass  12.00000

 Molecular mass:   157.13275 amu.
 Principal axes and moments of inertia in atomic units:
                           1         2         3
     Eigenvalues --   911.278424779.113675220.54724
           X            0.99968  -0.02513   0.00178
           Y            0.02515   0.99964  -0.00891
           Z           -0.00156   0.00896   0.99996
 This molecule is an asymmetric top.
 Rotational symmetry number  1.
 Warning -- assumption of classical behavior for rotation
           may cause significant error
 Rotational temperatures (Kelvin)      0.09505     0.01812     0.01659
 Rotational constants (GHZ):           1.98045     0.37763     0.34570
 Zero-point vibrational energy     597417.3 (Joules/Mol)
                                  142.78616 (Kcal/Mol)
 Warning -- explicit consideration of  19 degrees of freedom as
           vibrations may cause significant error
 Vibrational temperatures:     44.71    65.59    85.35   111.66   168.11
          (Kelvin)            194.94   205.15   274.34   357.63   377.35
                              420.23   451.84   509.97   550.92   592.15
                              657.98   731.04   787.58   849.82   958.67
                             1061.77  1107.36  1222.99  1268.32  1308.37
                             1378.91  1430.37  1462.83  1517.54  1541.03
                             1580.36  1640.17  1651.10  1659.88  1680.41
                             1715.52  1729.15  1792.60  1829.04  1875.54
                             1887.95  1900.72  1932.64  2024.44  2034.91
                             2060.65  2068.01  2116.00  2142.26  2147.00
                             2155.67  2162.05  2176.83  2180.48  2195.85
                             2388.47  3377.14  4211.97  4216.15  4227.11
                             4230.38  4309.90  4344.45  4368.33  4398.90
                             4426.50  4450.71  4535.94  4942.59  5012.94
                             5105.92  5124.42

 Zero-point correction=                           0.227544 (Hartree/Particle)
 Thermal correction to Energy=                    0.240836
 Thermal correction to Enthalpy=                  0.241780
 Thermal correction to Gibbs Free Energy=         0.186240
 Sum of electronic and zero-point Energies=           -511.155065
 Sum of electronic and thermal Energies=              -511.141773
 Sum of electronic and thermal Enthalpies=            -511.140828
 Sum of electronic and thermal Free Energies=         -511.196368

                     E (Thermal)             CV                S
                      KCal/Mol        Cal/Mol-Kelvin    Cal/Mol-Kelvin
 Total                  151.127             46.928            116.894
 Electronic               0.000              0.000              0.000
 Translational            0.889              2.981             41.065
 Rotational               0.889              2.981             31.498
 Vibrational            149.350             40.967             44.331
 Vibration     1          0.594              1.983              5.760
 Vibration     2          0.595              1.979              5.000
 Vibration     3          0.597              1.974              4.480
 Vibration     4          0.599              1.964              3.950
 Vibration     5          0.608              1.935              3.152
 Vibration     6          0.613              1.918              2.867
 Vibration     7          0.616              1.911              2.769
 Vibration     8          0.634              1.853              2.221
 Vibration     9          0.662              1.765              1.741
 Vibration    10          0.670              1.742              1.647
 Vibration    11          0.687              1.689              1.462
 Vibration    12          0.702              1.647              1.341
 Vibration    13          0.730              1.566              1.146
 Vibration    14          0.752              1.507              1.028
 Vibration    15          0.776              1.445              0.921
 Vibration    16          0.815              1.345              0.774
 Vibration    17          0.863              1.232              0.638
 Vibration    18          0.903              1.145              0.550
 Vibration    19          0.948              1.052              0.466

 Optimization completed.
    -- Stationary point found.
 Normal termination of Gaussian 16 at Tue Jun  1 17:26:52 2021.
