 Gaussian 16, Revision A.03,
 Gaussian 16:  ES64L-G16RevA.03 25-Dec-2016

 -----------------------------
 # opt freq b3lyp/6-31g(2df,p)
 -----------------------------

 -------------------
 Title Card Required
 -------------------
 Symbolic Z-matrix:
 Charge =  0 Multiplicity = 1

 SCF Done:  E(RB3LYP) =  -449.919152564     A.U. after   13 cycles
 SCF Done:  E(RB3LYP) =  -449.926943437     A.U. after   13 cycles
 SCF Done:  E(RB3LYP) =  -449.928781919     A.U. after   12 cycles
 SCF Done:  E(RB3LYP) =  -449.929288985     A.U. after   13 cycles
 SCF Done:  E(RB3LYP) =  -449.929876386     A.U. after   13 cycles
 SCF Done:  E(RB3LYP) =  -449.930386958     A.U. after   13 cycles
 SCF Done:  E(RB3LYP) =  -449.930898936     A.U. after   15 cycles
 SCF Done:  E(RB3LYP) =  -449.931316965     A.U. after   13 cycles
 SCF Done:  E(RB3LYP) =  -449.931753941     A.U. after   12 cycles
 SCF Done:  E(RB3LYP) =  -449.932318938     A.U. after   15 cycles
 SCF Done:  E(RB3LYP) =  -449.938617816     A.U. after   12 cycles
 SCF Done:  E(RB3LYP) =  -449.938871520     A.U. after   12 cycles
 SCF Done:  E(RB3LYP) =  -449.939073197     A.U. after   11 cycles
 SCF Done:  E(RB3LYP) =  -449.939304959     A.U. after   12 cycles
 SCF Done:  E(RB3LYP) =  -449.939443563     A.U. after   11 cycles
 SCF Done:  E(RB3LYP) =  -449.939514851     A.U. after   11 cycles
 SCF Done:  E(RB3LYP) =  -449.939532601     A.U. after   10 cycles
 SCF Done:  E(RB3LYP) =  -449.939534723     A.U. after    8 cycles
 SCF Done:  E(RB3LYP) =  -449.939534775     A.U. after    7 cycles
 Optimization completed.
    -- Stationary point found.
 Normal termination of Gaussian 16 at Tue Jun  1 11:09:45 2021.

 ----------------------------------------------------------------------
 #N Geom=AllCheck Guess=TCheck SCRF=Check GenChk RB3LYP/6-31G(2df,p) Fr
 eq
 ----------------------------------------------------------------------

 Structure from the checkpoint file:  "CNpCNCNdNpNN.chk"
 -------------------
 Title Card Required
 -------------------
 Charge =  0 Multiplicity = 1

                         Standard orientation:
 ---------------------------------------------------------------------
 Center     Atomic      Atomic             Coordinates (Angstroms)
 Number     Number       Type             X           Y           Z
 ---------------------------------------------------------------------
      1          6           0       -1.444944    0.812965   -1.420783
      2          7           0       -1.241737    0.171947   -0.128219
      3          6           0       -0.408964    0.958936    0.777771
      4          7           0        0.957312    0.990597    0.288992
      5          6           0        1.689487   -0.242112    0.508101
      6          7           0        3.069160   -0.036168    0.043827
      7          7           0        3.517499   -1.013363   -0.572545
      8          7           0       -2.457184   -0.188607    0.524922
      9          7           0       -2.960772   -1.460112    0.135031
     10          1           0       -0.472232    1.078366   -1.839155
     11          1           0       -2.055536    1.732941   -1.341938
     12          1           0       -1.943323    0.124825   -2.110883
     13          1           0       -0.522919    0.491853    1.767875
     14          1           0       -0.750540    2.007132    0.859446
     15          1           0        1.466218    1.766840    0.696351
     16          1           0        1.203679   -1.067129   -0.020951
     17          1           0        1.774279   -0.516000    1.578360
     18          1           0        4.492060   -0.776306   -0.831196
     19          1           0       -3.187277    0.483766    0.286465
     20          1           0       -2.373175   -2.152403    0.590859
     21          1           0       -2.834648   -1.602667   -0.869827
 ---------------------------------------------------------------------

 SCF Done:  E(RB3LYP) =  -449.939534775     A.U. after    1 cycles

 The electronic state is 1-A.
 Alpha  occ. eigenvalues --  -14.38490 -14.37547 -14.36217 -14.34284 -14.33259
 Alpha  occ. eigenvalues --  -14.32172 -10.23098 -10.23025 -10.20096  -1.03214
 Alpha  occ. eigenvalues --   -1.00133  -0.92077  -0.86699  -0.75161  -0.72794
 Alpha  occ. eigenvalues --   -0.68385  -0.61256  -0.58889  -0.52129  -0.50594
 Alpha  occ. eigenvalues --   -0.49832  -0.48117  -0.47062  -0.45383  -0.43130
 Alpha  occ. eigenvalues --   -0.42075  -0.41665  -0.39881  -0.37828  -0.36866
 Alpha  occ. eigenvalues --   -0.35464  -0.26192  -0.24240  -0.23909  -0.22956
 Alpha  occ. eigenvalues --   -0.22689
 Alpha virt. eigenvalues --   -0.04342   0.07686   0.09395   0.09954   0.10642
 Alpha virt. eigenvalues --    0.13083   0.13240   0.14639   0.15870   0.16761
 Alpha virt. eigenvalues --    0.16989   0.17419   0.19281   0.19800   0.21489

 Mulliken charges:
               1
     1  C   -0.330295
     2  N   -0.046772
     3  C   -0.098984
     4  N   -0.291889
     5  C   -0.044269
     6  N   -0.125694
     7  N   -0.270492
     8  N   -0.251434
     9  N   -0.439779
    10  H    0.147069
    11  H    0.090288
    12  H    0.113266
    13  H    0.096235
    14  H    0.076665
    15  H    0.226571
    16  H    0.126756
    17  H    0.096619
    18  H    0.244737
    19  H    0.221161
    20  H    0.241070
    21  H    0.219172
 Sum of Mulliken charges =  -0.00000

 Dipole moment (field-independent basis, Debye):
    X=              0.6850    Y=              0.9859    Z=             -0.3704  Tot=              1.2564
 Quadrupole moment (field-independent basis, Debye-Ang):
   XX=            -56.4316   YY=            -53.5871   ZZ=            -54.0193
   XY=             -2.2847   XZ=              4.3965   YZ=              1.2084

  Exact polarizability:  96.847  -1.901  75.533  -4.280   2.651  68.840
 Approx polarizability: 117.768  -3.284 113.290  -7.995   6.383 102.751

                      1                      2                      3
                      A                      A                      A
 Frequencies --     35.2313                51.8455                73.6197
 Red. masses --      3.8945                 4.0437                 3.6284
 Frc consts  --      0.0028                 0.0064                 0.0116
 IR Inten    --      0.2463                 0.5801                 1.4980

                      4                      5                      6
                      A                      A                      A
 Frequencies --    110.6720               130.0177               231.5570
 Red. masses --      3.0052                 2.7012                 2.5392
 Frc consts  --      0.0217                 0.0269                 0.0802
 IR Inten    --      3.6945                 1.1436                 5.7946

                      7                      8                      9
                      A                      A                      A
 Frequencies --    244.8774               272.7783               303.5442
 Red. masses --      1.2009                 2.4727                 2.1588
 Frc consts  --      0.0424                 0.1084                 0.1172
 IR Inten    --      1.3340                20.2483                 9.0911

                     10                     11                     12
                      A                      A                      A
 Frequencies --    321.2011               375.7435               454.3801
 Red. masses --      1.9678                 2.5674                 2.0195
 Frc consts  --      0.1196                 0.2136                 0.2457
 IR Inten    --      4.9383                 2.4700                16.4596

                     13                     14                     15
                      A                      A                      A
 Frequencies --    517.0411               539.1541               578.8063
 Red. masses --      2.9188                 3.5453                 3.0809
 Frc consts  --      0.4597                 0.6072                 0.6081
 IR Inten    --      2.5752                15.1437                 0.9013

                     16                     17                     18
                      A                      A                      A
 Frequencies --    737.7173               805.0416               842.4848
 Red. masses --      1.6554                 2.6075                 1.3124
 Frc consts  --      0.5308                 0.9957                 0.5488
 IR Inten    --    121.7918                 6.6668                14.5626

                     19                     20                     21
                      A                      A                      A
 Frequencies --    913.9209               958.9869               987.4750
 Red. masses --      3.5224                 1.9444                 3.2252
 Frc consts  --      1.7334                 1.0536                 1.8530
 IR Inten    --     42.5280               144.3990                 1.6288

                     22                     23                     24
                      A                      A                      A
 Frequencies --   1001.0030              1043.8688              1096.0666
 Red. masses --      1.7131                 1.5550                 1.7627
 Frc consts  --      1.0113                 0.9983                 1.2477
 IR Inten    --     24.4357                18.0192                12.8228

                     25                     26                     27
                      A                      A                      A
 Frequencies --   1126.1115              1145.0540              1163.9245
 Red. masses --      1.5350                 1.7597                 2.4639
 Frc consts  --      1.1469                 1.3594                 1.9667
 IR Inten    --      2.3039                61.0926                30.2074

                     28                     29                     30
                      A                      A                      A
 Frequencies --   1198.0077              1212.1997              1223.0390
 Red. masses --      2.2190                 2.4093                 1.1556
 Frc consts  --      1.8764                 2.0859                 1.0185
 IR Inten    --     31.6076                80.7014                 9.2311

                     31                     32                     33
                      A                      A                      A
 Frequencies --   1255.2064              1309.9431              1342.9765
 Red. masses --      2.0548                 1.2886                 1.3937
 Frc consts  --      1.9074                 1.3028                 1.4810
 IR Inten    --      7.5902                 0.6473                 5.4561

                     34                     35                     36
                      A                      A                      A
 Frequencies --   1373.8400              1408.6416              1438.8018
 Red. masses --      1.3150                 1.2692                 1.2125
 Frc consts  --      1.4623                 1.4838                 1.4789
 IR Inten    --     13.5508                37.7531                20.5090

                     37                     38                     39
                      A                      A                      A
 Frequencies --   1480.6332              1484.9459              1495.7112
 Red. masses --      1.2077                 1.1014                 1.2681
 Frc consts  --      1.5600                 1.4309                 1.6714
 IR Inten    --     12.5056                 6.0984                32.6023

                     40                     41                     42
                      A                      A                      A
 Frequencies --   1500.1332              1505.1306              1510.3986
 Red. masses --      1.0828                 1.0782                 1.0979
 Frc consts  --      1.4357                 1.4392                 1.4757
 IR Inten    --      6.4615                 4.0257                 1.7873

                     43                     44                     45
                      A                      A                      A
 Frequencies --   1533.0759              1666.2415              1689.9209
 Red. masses --      1.1391                10.3892                 1.0634
 Frc consts  --      1.5774                16.9946                 1.7892
 IR Inten    --      2.1848                 3.2927                14.0259

                     46                     47                     48
                      A                      A                      A
 Frequencies --   2909.3339              2924.7650              2932.7565
 Red. masses --      1.0697                 1.0611                 1.0637
 Frc consts  --      5.3346                 5.3481                 5.3902
 IR Inten    --     64.4781                42.6168               121.2280

                     49                     50                     51
                      A                      A                      A
 Frequencies --   2997.8423              3069.6862              3084.7787
 Red. masses --      1.0945                 1.0759                 1.0889
 Frc consts  --      5.7953                 5.9731                 6.1052
 IR Inten    --     40.1267                29.3603                12.3672

                     52                     53                     54
                      A                      A                      A
 Frequencies --   3132.2702              3240.1160              3400.2903
 Red. masses --      1.0980                 1.0738                 1.0558
 Frc consts  --      6.3471                 6.6418                 7.1923
 IR Inten    --      8.7542                33.2465                10.6619

                     55                     56                     57
                      A                      A                      A
 Frequencies --   3417.5632              3534.2611              3545.9375
 Red. masses --      1.0733                 1.0845                 1.0739
 Frc consts  --      7.3859                 7.9816                 7.9559
 IR Inten    --      9.1227                 0.4093                 2.7409

 - Thermochemistry -
 -------------------
 Temperature   298.150 Kelvin.  Pressure   1.00000 Atm.
 Atom     1 has atomic number  6 and mass  12.00000

 Molecular mass:   132.11234 amu.
 Principal axes and moments of inertia in atomic units:
                           1         2         3
     Eigenvalues --   581.616202612.135642742.91983
           X            0.99994  -0.00177   0.01057
           Y            0.00196   0.99984  -0.01793
           Z           -0.01054   0.01794   0.99978
 This molecule is an asymmetric top.
 Rotational symmetry number  1.
 Warning -- assumption of classical behavior for rotation
           may cause significant error
 Rotational temperatures (Kelvin)      0.14892     0.03316     0.03158
 Rotational constants (GHZ):           3.10298     0.69091     0.65796
 Zero-point vibrational energy     477791.9 (Joules/Mol)
                                  114.19501 (Kcal/Mol)
 Warning -- explicit consideration of  15 degrees of freedom as
           vibrations may cause significant error
 Vibrational temperatures:     50.69    74.59   105.92   159.23   187.07
          (Kelvin)            333.16   352.32   392.47   436.73   462.14
                              540.61   653.75   743.91   775.72   832.77
                             1061.41  1158.28  1212.15  1314.93  1379.77
                             1420.76  1440.22  1501.89  1577.00  1620.22
                             1647.48  1674.63  1723.67  1744.09  1759.68
                             1805.96  1884.72  1932.24  1976.65  2026.72
                             2070.11  2130.30  2136.51  2151.99  2158.36
                             2165.55  2173.13  2205.75  2397.35  2431.42
                             4185.88  4208.08  4219.58  4313.23  4416.59
                             4438.31  4506.64  4661.80  4892.26  4917.11
                             5085.01  5101.81

 Zero-point correction=                           0.181981 (Hartree/Particle)
 Thermal correction to Energy=                    0.192811
 Thermal correction to Enthalpy=                  0.193755
 Thermal correction to Gibbs Free Energy=         0.144332
 Sum of electronic and zero-point Energies=           -449.757553
 Sum of electronic and thermal Energies=              -449.746724
 Sum of electronic and thermal Enthalpies=            -449.745780
 Sum of electronic and thermal Free Energies=         -449.795202

                     E (Thermal)             CV                S
                      KCal/Mol        Cal/Mol-Kelvin    Cal/Mol-Kelvin
 Total                  120.990             37.620            104.018
 Electronic               0.000              0.000              0.000
 Translational            0.889              2.981             40.548
 Rotational               0.889              2.981             29.812
 Vibrational            119.213             31.658             33.659
 Vibration     1          0.594              1.982              5.511
 Vibration     2          0.596              1.977              4.746
 Vibration     3          0.599              1.966              4.054
 Vibration     4          0.607              1.941              3.257
 Vibration     5          0.612              1.923              2.946
 Vibration     6          0.653              1.793              1.867
 Vibration     7          0.660              1.771              1.767
 Vibration     8          0.676              1.724              1.579
 Vibration     9          0.695              1.667              1.397
 Vibration    10          0.707              1.633              1.304
 Vibration    11          0.747              1.522              1.056
 Vibration    12          0.813              1.351              0.783
 Vibration    13          0.872              1.212              0.617
 Vibration    14          0.894              1.163              0.567
 Vibration    15          0.935              1.077              0.488

 Optimization completed.
    -- Stationary point found.
 Normal termination of Gaussian 16 at Tue Jun  1 11:36:32 2021.
