 Gaussian 16, Revision A.03,
 Gaussian 16:  ES64L-G16RevA.03 25-Dec-2016

 -----------------------------
 # opt freq b3lyp/6-31g(2df,p)
 -----------------------------

 -------------------
 Title Card Required
 -------------------
 Symbolic Z-matrix:
 Charge =  0 Multiplicity = 1

 SCF Done:  E(RB3LYP) =  -400.704825309     A.U. after   13 cycles
 SCF Done:  E(RB3LYP) =  -400.708256412     A.U. after   11 cycles
 SCF Done:  E(RB3LYP) =  -400.708966169     A.U. after   12 cycles
 SCF Done:  E(RB3LYP) =  -400.709134918     A.U. after   11 cycles
 SCF Done:  E(RB3LYP) =  -400.709157163     A.U. after   10 cycles
 SCF Done:  E(RB3LYP) =  -400.709161984     A.U. after    8 cycles
 SCF Done:  E(RB3LYP) =  -400.709163347     A.U. after    7 cycles
 SCF Done:  E(RB3LYP) =  -400.709163732     A.U. after    7 cycles
 SCF Done:  E(RB3LYP) =  -400.709163888     A.U. after    7 cycles
 Optimization completed.
    -- Stationary point found.
 Normal termination of Gaussian 16 at Tue Jun  1 16:07:44 2021.

 ----------------------------------------------------------------------
 #N Geom=AllCheck Guess=TCheck SCRF=Check GenChk RB3LYP/6-31G(2df,p) Fr
 eq
 ----------------------------------------------------------------------

 Structure from the checkpoint file:  "CNpCCtNpCCCN.chk"
 -------------------
 Title Card Required
 -------------------
 Charge =  0 Multiplicity = 1

                         Standard orientation:
 ---------------------------------------------------------------------
 Center     Atomic      Atomic             Coordinates (Angstroms)
 Number     Number       Type             X           Y           Z
 ---------------------------------------------------------------------
      1          6           0        1.705835    1.756566   -0.220148
      2          7           0        0.870286    0.561019   -0.210893
      3          6           0        1.457629   -0.494073    0.604971
      4          6           0        2.728561   -0.977364    0.051321
      5          7           0        3.734066   -1.361480   -0.367725
      6          6           0       -0.505013    0.863693    0.191675
      7          6           0       -1.503221   -0.253886   -0.120201
      8          6           0       -2.952699    0.191072    0.088480
      9          7           0       -3.865642   -0.934393   -0.127658
     10          1           0        2.709509    1.505840   -0.573465
     11          1           0        1.798586    2.226699    0.777133
     12          1           0        1.278116    2.492486   -0.906229
     13          1           0        0.773082   -1.345611    0.647957
     14          1           0        1.641750   -0.179009    1.651822
     15          1           0       -0.799530    1.761197   -0.363755
     16          1           0       -0.564254    1.132001    1.265894
     17          1           0       -1.335121   -1.135607    0.507654
     18          1           0       -1.356414   -0.570635   -1.160570
     19          1           0       -3.157142    1.065877   -0.554639
     20          1           0       -3.083243    0.530670    1.123917
     21          1           0       -3.841476   -1.210595   -1.105614
     22          1           0       -4.821389   -0.645385    0.057240
 ---------------------------------------------------------------------

 SCF Done:  E(RB3LYP) =  -400.709163888     A.U. after    1 cycles

 The electronic state is 1-A.
 Alpha  occ. eigenvalues --  -14.34245 -14.32754 -14.31333 -10.25611 -10.21960
 Alpha  occ. eigenvalues --  -10.21923 -10.21357 -10.21068 -10.18806  -0.94614
 Alpha  occ. eigenvalues --   -0.89711  -0.88428  -0.77914  -0.75039  -0.68910
 Alpha  occ. eigenvalues --   -0.62320  -0.59544  -0.52788  -0.50122  -0.49539
 Alpha  occ. eigenvalues --   -0.47975  -0.46721  -0.43718  -0.42550  -0.41266
 Alpha  occ. eigenvalues --   -0.39735  -0.38819  -0.35911  -0.35762  -0.35047
 Alpha  occ. eigenvalues --   -0.34428  -0.32821  -0.32118  -0.24244  -0.23496
 Alpha virt. eigenvalues --    0.02683   0.04175   0.07384   0.07885   0.10489
 Alpha virt. eigenvalues --    0.11199   0.11911   0.13818   0.14245   0.14980
 Alpha virt. eigenvalues --    0.16236   0.17214   0.17640   0.18179   0.19251

 Mulliken charges:
               1
     1  C   -0.336525
     2  N   -0.070405
     3  C   -0.278397
     4  C    0.274943
     5  N   -0.311008
     6  C   -0.131587
     7  C   -0.185207
     8  C   -0.147544
     9  N   -0.509043
    10  H    0.147904
    11  H    0.096488
    12  H    0.126414
    13  H    0.156490
    14  H    0.124196
    15  H    0.104550
    16  H    0.080263
    17  H    0.113109
    18  H    0.107210
    19  H    0.081043
    20  H    0.104605
    21  H    0.225123
    22  H    0.227377
 Sum of Mulliken charges =  -0.00000

 Dipole moment (field-independent basis, Debye):
    X=             -4.0528    Y=              2.4810    Z=              0.8623  Tot=              4.8295
 Quadrupole moment (field-independent basis, Debye-Ang):
   XX=            -66.7361   YY=            -58.1378   ZZ=            -54.9931
   XY=              4.6402   XZ=              6.9216   YZ=             -0.5668

  Exact polarizability: 106.763  -2.989  78.394  -3.357   1.584  68.984
 Approx polarizability: 134.538  -8.591 111.335  -9.608   3.567 109.084

                      1                      2                      3
                      A                      A                      A
 Frequencies --     53.0377                54.2216                78.9247
 Red. masses --      1.8544                 3.8233                 3.4246
 Frc consts  --      0.0031                 0.0066                 0.0126
 IR Inten    --      6.4681                 2.6385                 1.0624

                      4                      5                      6
                      A                      A                      A
 Frequencies --    128.1677               158.3331               171.6450
 Red. masses --      2.9656                 2.7068                 3.1684
 Frc consts  --      0.0287                 0.0400                 0.0550
 IR Inten    --      0.6203                 3.6883                 4.1159

                      7                      8                      9
                      A                      A                      A
 Frequencies --    245.2802               263.3607               279.4137
 Red. masses --      1.1401                 1.1604                 3.3461
 Frc consts  --      0.0404                 0.0474                 0.1539
 IR Inten    --      8.1667                25.1730                 0.4095

                     10                     11                     12
                      A                      A                      A
 Frequencies --    340.0908               362.0532               390.4468
 Red. masses --      2.7656                 2.4639                 3.1723
 Frc consts  --      0.1885                 0.1903                 0.2849
 IR Inten    --     13.6575                 4.4266                 0.8394

                     13                     14                     15
                      A                      A                      A
 Frequencies --    430.1941               502.2857               587.2214
 Red. masses --      4.3883                 2.9291                 5.3153
 Frc consts  --      0.4785                 0.4354                 1.0799
 IR Inten    --      0.4496                 9.3129                 2.4700

                     16                     17                     18
                      A                      A                      A
 Frequencies --    765.2632               844.8460               858.6080
 Red. masses --      1.0985                 1.2341                 4.0734
 Frc consts  --      0.3790                 0.5190                 1.7693
 IR Inten    --      2.7540                72.8050                24.2637

                     19                     20                     21
                      A                      A                      A
 Frequencies --    905.5014               948.9327               983.4917
 Red. masses --      1.3567                 3.7330                 2.1420
 Frc consts  --      0.6554                 1.9805                 1.2207
 IR Inten    --     58.6204                 3.1898                 4.9688

                     22                     23                     24
                      A                      A                      A
 Frequencies --   1001.0251              1027.8299              1076.5834
 Red. masses --      1.8776                 2.4776                 2.3478
 Frc consts  --      1.1085                 1.5421                 1.6033
 IR Inten    --      4.1894                14.3376                28.4042

                     25                     26                     27
                      A                      A                      A
 Frequencies --   1089.2603              1117.6131              1148.5515
 Red. masses --      2.6523                 1.8747                 1.3106
 Frc consts  --      1.8541                 1.3796                 1.0186
 IR Inten    --      3.0009                14.8239                 6.7143

                     28                     29                     30
                      A                      A                      A
 Frequencies --   1168.7790              1207.2230              1235.4453
 Red. masses --      1.8097                 1.7322                 1.6153
 Frc consts  --      1.4566                 1.4873                 1.4526
 IR Inten    --     17.7190                11.8458                22.1293

                     31                     32                     33
                      A                      A                      A
 Frequencies --   1282.4206              1302.7211              1310.8001
 Red. masses --      1.4753                 1.3298                 1.3216
 Frc consts  --      1.4295                 1.3296                 1.3379
 IR Inten    --     10.4245                 3.8364                 7.5567

                     34                     35                     36
                      A                      A                      A
 Frequencies --   1326.2242              1351.7232              1395.2625
 Red. masses --      1.1736                 1.2628                 1.3945
 Frc consts  --      1.2162                 1.3594                 1.5995
 IR Inten    --      6.8854                 3.8917                 9.5351

                     37                     38                     39
                      A                      A                      A
 Frequencies --   1416.2281              1432.3796              1462.4889
 Red. masses --      1.4105                 1.4540                 1.1637
 Frc consts  --      1.6668                 1.7576                 1.4665
 IR Inten    --     17.2196                23.7473                 0.6920

                     40                     41                     42
                      A                      A                      A
 Frequencies --   1474.5636              1489.6259              1493.6853
 Red. masses --      1.0937                 1.0765                 1.0562
 Frc consts  --      1.4011                 1.4074                 1.3884
 IR Inten    --      0.7275                 4.5207                14.6616

                     43                     44                     45
                      A                      A                      A
 Frequencies --   1500.9732              1508.3624              1520.8868
 Red. masses --      1.0755                 1.0699                 1.0927
 Frc consts  --      1.4276                 1.4342                 1.4891
 IR Inten    --      4.1683                 2.5097                 0.9034

                     46                     47                     48
                      A                      A                      A
 Frequencies --   1660.7278              2366.0159              2900.4753
 Red. masses --      1.0887                12.6193                 1.0727
 Frc consts  --      1.7691                41.6218                 5.3171
 IR Inten    --     21.5033                 3.5606                32.3326

                     49                     50                     51
                      A                      A                      A
 Frequencies --   2907.0881              2933.5473              2935.7192
 Red. masses --      1.0716                 1.0604                 1.0724
 Frc consts  --      5.3357                 5.3764                 5.4457
 IR Inten    --     55.9448                79.5659                80.2079

                     52                     53                     54
                      A                      A                      A
 Frequencies --   3028.1340              3039.0651              3052.1598
 Red. masses --      1.0663                 1.0798                 1.0866
 Frc consts  --      5.7605                 5.8760                 5.9640
 IR Inten    --      7.2583                36.6963                13.7186

                     55                     56                     57
                      A                      A                      A
 Frequencies --   3076.9122              3080.6276              3092.5353
 Red. masses --      1.0728                 1.0994                 1.0850
 Frc consts  --      5.9840                 6.1475                 6.1140
 IR Inten    --     12.7474                51.9704                13.4843

                     58                     59                     60
                      A                      A                      A
 Frequencies --   3121.8491              3486.7434              3564.7297
 Red. masses --      1.1034                 1.0497                 1.0918
 Frc consts  --      6.3360                 7.5186                 8.1742
 IR Inten    --     18.2460                 0.5554                 0.1254

 - Thermochemistry -
 -------------------
 Temperature   298.150 Kelvin.  Pressure   1.00000 Atm.
 Atom     1 has atomic number  6 and mass  12.00000

 Molecular mass:   127.11095 amu.
 Principal axes and moments of inertia in atomic units:
                           1         2         3
     Eigenvalues --   528.526542845.179173234.14197
           X            0.99980   0.01909   0.00588
           Y           -0.01908   0.99982  -0.00220
           Z           -0.00592   0.00209   0.99998
 This molecule is an asymmetric top.
 Rotational symmetry number  1.
 Warning -- assumption of classical behavior for rotation
           may cause significant error
 Rotational temperatures (Kelvin)      0.16388     0.03044     0.02678
 Rotational constants (GHZ):           3.41467     0.63432     0.55803
 Zero-point vibrational energy     508043.9 (Joules/Mol)
                                  121.42540 (Kcal/Mol)
 Warning -- explicit consideration of  15 degrees of freedom as
           vibrations may cause significant error
 Vibrational temperatures:     76.31    78.01   113.56   184.40   227.81
          (Kelvin)            246.96   352.90   378.92   402.01   489.31
                              520.91   561.77   618.95   722.68   844.88
                             1101.04  1215.54  1235.35  1302.81  1365.30
                             1415.03  1440.25  1478.82  1548.96  1567.20
                             1608.00  1652.51  1681.61  1736.92  1777.53
                             1845.12  1874.33  1885.95  1908.14  1944.83
                             2007.47  2037.64  2060.87  2104.20  2121.57
                             2143.24  2149.08  2159.57  2170.20  2188.22
                             2389.42  3404.17  4173.14  4182.65  4220.72
                             4223.85  4356.81  4372.54  4391.38  4426.99
                             4432.34  4449.47  4491.64  5016.65  5128.85

 Zero-point correction=                           0.193504 (Hartree/Particle)
 Thermal correction to Energy=                    0.204486
 Thermal correction to Enthalpy=                  0.205430
 Thermal correction to Gibbs Free Energy=         0.156196
 Sum of electronic and zero-point Energies=           -400.515660
 Sum of electronic and thermal Energies=              -400.504678
 Sum of electronic and thermal Enthalpies=            -400.503733
 Sum of electronic and thermal Free Energies=         -400.552968

                     E (Thermal)             CV                S
                      KCal/Mol        Cal/Mol-Kelvin    Cal/Mol-Kelvin
 Total                  128.317             38.337            103.622
 Electronic               0.000              0.000              0.000
 Translational            0.889              2.981             40.433
 Rotational               0.889              2.981             29.965
 Vibrational            126.540             32.376             33.224
 Vibration     1          0.596              1.976              4.701
 Vibration     2          0.596              1.976              4.657
 Vibration     3          0.600              1.963              3.917
 Vibration     4          0.611              1.925              2.973
 Vibration     5          0.621              1.893              2.570
 Vibration     6          0.626              1.877              2.417
 Vibration     7          0.660              1.771              1.764
 Vibration     8          0.670              1.740              1.639
 Vibration     9          0.680              1.712              1.537
 Vibration    10          0.720              1.595              1.212
 Vibration    11          0.736              1.550              1.113
 Vibration    12          0.758              1.491              0.998
 Vibration    13          0.791              1.404              0.858
 Vibration    14          0.858              1.245              0.652
 Vibration    15          0.944              1.059              0.472

 Optimization completed.
    -- Stationary point found.
 Normal termination of Gaussian 16 at Tue Jun  1 16:35:36 2021.
