 Gaussian 16, Revision A.03,
 Gaussian 16:  ES64L-G16RevA.03 25-Dec-2016

 -----------------------------
 # opt freq b3lyp/6-31g(2df,p)
 -----------------------------

 -------------------
 Title Card Required
 -------------------
 Symbolic Z-matrix:
 Charge =  0 Multiplicity = 1

 SCF Done:  E(RB3LYP) =  -431.480412995     A.U. after   14 cycles
 SCF Done:  E(RB3LYP) =  -431.487373445     A.U. after   15 cycles
 SCF Done:  E(RB3LYP) =  -431.490338202     A.U. after   15 cycles
 SCF Done:  E(RB3LYP) =  -431.494049900     A.U. after   16 cycles
 SCF Done:  E(RB3LYP) =  -431.496944373     A.U. after   15 cycles
 SCF Done:  E(RB3LYP) =  -431.497848429     A.U. after   13 cycles
 SCF Done:  E(RB3LYP) =  -431.498839017     A.U. after   14 cycles
 SCF Done:  E(RB3LYP) =  -431.499308198     A.U. after   15 cycles
 SCF Done:  E(RB3LYP) =  -431.499571763     A.U. after   13 cycles
 SCF Done:  E(RB3LYP) =  -431.499747908     A.U. after   13 cycles
 SCF Done:  E(RB3LYP) =  -431.499795894     A.U. after   12 cycles
 SCF Done:  E(RB3LYP) =  -431.499799651     A.U. after   10 cycles
 SCF Done:  E(RB3LYP) =  -431.499800143     A.U. after    8 cycles
 SCF Done:  E(RB3LYP) =  -431.499800270     A.U. after    8 cycles
 Optimization completed.
    -- Stationary point found.
 Normal termination of Gaussian 16 at Tue Jun  1 04:55:14 2021.

 ----------------------------------------------------------------------
 #N Geom=AllCheck Guess=TCheck SCRF=Check GenChk RB3LYP/6-31G(2df,p) Fr
 eq
 ----------------------------------------------------------------------

 Structure from the checkpoint file:  "CNpCCNdNpNCtN.chk"
 -------------------
 Title Card Required
 -------------------
 Charge =  0 Multiplicity = 1

                         Standard orientation:
 ---------------------------------------------------------------------
 Center     Atomic      Atomic             Coordinates (Angstroms)
 Number     Number       Type             X           Y           Z
 ---------------------------------------------------------------------
      1          6           0       -0.796562    1.745128   -0.055335
      2          7           0       -0.694299    0.288102   -0.074901
      3          6           0        0.581265   -0.236104    0.413208
      4          6           0        1.726187    0.056324   -0.563098
      5          7           0        2.882412   -0.760953   -0.170132
      6          7           0        3.877244   -0.073661    0.106826
      7          7           0       -1.747734   -0.303872    0.674468
      8          6           0       -2.879379   -0.544976   -0.006275
      9          7           0       -3.857927   -0.798077   -0.577111
     10          1           0       -0.018458    2.175088   -0.689303
     11          1           0       -0.687307    2.163342    0.962078
     12          1           0       -1.767590    2.040209   -0.459604
     13          1           0        0.471798   -1.318025    0.509754
     14          1           0        0.836785    0.165265    1.411528
     15          1           0        2.003300    1.115759   -0.593926
     16          1           0        1.421554   -0.277183   -1.561589
     17          1           0        4.627720   -0.736308    0.371343
     18          1           0       -1.894749    0.088847    1.604673
 ---------------------------------------------------------------------

 SCF Done:  E(RB3LYP) =  -431.499800270     A.U. after    1 cycles

 The electronic state is 1-A.
 Alpha  occ. eigenvalues --  -14.41198 -14.39639 -14.38778 -14.38554 -14.31773
 Alpha  occ. eigenvalues --  -10.24006 -10.23373 -10.22834 -10.22433  -1.04163
 Alpha  occ. eigenvalues --   -1.03278  -0.90345  -0.85736  -0.79576  -0.72352
 Alpha  occ. eigenvalues --   -0.65977  -0.60648  -0.59138  -0.54280  -0.50950
 Alpha  occ. eigenvalues --   -0.50325  -0.46233  -0.44490  -0.43418  -0.42186
 Alpha  occ. eigenvalues --   -0.39900  -0.38155  -0.36777  -0.35932  -0.35274
 Alpha  occ. eigenvalues --   -0.32732  -0.26932  -0.26055  -0.24245
 Alpha virt. eigenvalues --   -0.05384   0.02245   0.05223   0.07657   0.09170
 Alpha virt. eigenvalues --    0.10325   0.11835   0.12266   0.13148   0.13528
 Alpha virt. eigenvalues --    0.14940   0.16462   0.17294   0.18774   0.21110

 Mulliken charges:
               1
     1  C   -0.333435
     2  N   -0.082686
     3  C   -0.121876
     4  C   -0.134427
     5  N   -0.107178
     6  N   -0.274187
     7  N   -0.353822
     8  C    0.358110
     9  N   -0.333399
    10  H    0.143892
    11  H    0.102909
    12  H    0.151365
    13  H    0.140746
    14  H    0.092261
    15  H    0.110547
    16  H    0.138130
    17  H    0.248592
    18  H    0.254457
 Sum of Mulliken charges =  -0.00000

 Dipole moment (field-independent basis, Debye):
    X=              3.4277    Y=              2.0490    Z=              2.3967  Tot=              4.6575
 Quadrupole moment (field-independent basis, Debye-Ang):
   XX=            -69.6826   YY=            -53.9974   ZZ=            -50.9312
   XY=             -8.5747   XZ=             -6.6130   YZ=             -1.2623

  Exact polarizability: 111.321   3.897  63.769   8.974   0.801  60.106
 Approx polarizability: 146.221  11.865  93.772  20.370   3.919  96.930

                      1                      2                      3
                      A                      A                      A
 Frequencies --     43.8795                50.9845                75.5848
 Red. masses --      6.6612                 4.1734                 3.7234
 Frc consts  --      0.0076                 0.0064                 0.0125
 IR Inten    --      5.1677                 1.9243                 0.3647

                      4                      5                      6
                      A                      A                      A
 Frequencies --    113.2445               143.4407               231.0320
 Red. masses --      3.3069                 4.1952                 2.2058
 Frc consts  --      0.0250                 0.0509                 0.0694
 IR Inten    --      2.4460                 1.5821                 1.1079

                      7                      8                      9
                      A                      A                      A
 Frequencies --    261.5379               324.6963               368.6313
 Red. masses --      1.4649                 4.2675                 2.7034
 Frc consts  --      0.0590                 0.2651                 0.2164
 IR Inten    --      0.2901                 0.6985                 2.9089

                     10                     11                     12
                      A                      A                      A
 Frequencies --    401.7822               437.8058               511.5234
 Red. masses --      3.1868                 2.5027                 3.7336
 Frc consts  --      0.3031                 0.2826                 0.5756
 IR Inten    --      5.6309                16.5582                 9.4837

                     13                     14                     15
                      A                      A                      A
 Frequencies --    571.6791               603.4446               668.7543
 Red. masses --      2.7010                 5.2616                 2.6107
 Frc consts  --      0.5201                 1.1289                 0.6879
 IR Inten    --     16.9637                29.4849                51.7819

                     16                     17                     18
                      A                      A                      A
 Frequencies --    827.7977               882.9695               896.1001
 Red. masses --      1.2200                 2.2793                 1.9608
 Frc consts  --      0.4925                 1.0470                 0.9277
 IR Inten    --      3.8223                62.0475                 7.9695

                     19                     20                     21
                      A                      A                      A
 Frequencies --    973.3727              1020.5471              1071.1622
 Red. masses --      3.1977                 2.6314                 2.2339
 Frc consts  --      1.7850                 1.6147                 1.5102
 IR Inten    --     17.8580                18.1011                11.9702

                     22                     23                     24
                      A                      A                      A
 Frequencies --   1111.0967              1137.0158              1153.2760
 Red. masses --      1.6636                 2.2657                 2.4959
 Frc consts  --      1.2101                 1.7258                 1.9559
 IR Inten    --      6.3369                20.6742                 4.0258

                     25                     26                     27
                      A                      A                      A
 Frequencies --   1186.9732              1240.9694              1268.6712
 Red. masses --      1.8960                 1.5018                 2.1763
 Frc consts  --      1.5738                 1.3626                 2.0638
 IR Inten    --      5.1245                11.5867                 2.6260

                     28                     29                     30
                      A                      A                      A
 Frequencies --   1310.7637              1333.1163              1397.2806
 Red. masses --      1.2595                 1.2418                 1.3916
 Frc consts  --      1.2750                 1.3003                 1.6008
 IR Inten    --     10.1697                15.1310                 5.7865

                     31                     32                     33
                      A                      A                      A
 Frequencies --   1444.4288              1474.5127              1477.9412
 Red. masses --      1.1877                 1.1988                 1.0995
 Frc consts  --      1.4600                 1.5357                 1.4150
 IR Inten    --      0.1522                 6.5803                 3.8601

                     34                     35                     36
                      A                      A                      A
 Frequencies --   1492.9192              1493.8310              1497.1908
 Red. masses --      1.0831                 1.0844                 1.2266
 Frc consts  --      1.4223                 1.4258                 1.6200
 IR Inten    --      8.8265                 6.3878                18.5041

                     37                     38                     39
                      A                      A                      A
 Frequencies --   1512.9425              1657.0826              2348.0506
 Red. masses --      1.1148                10.0501                12.3769
 Frc consts  --      1.5034                16.2596                40.2048
 IR Inten    --     13.2397                 4.6745               115.0893

                     40                     41                     42
                      A                      A                      A
 Frequencies --   2936.3933              2946.6606              3030.9192
 Red. masses --      1.0713                 1.0588                 1.0553
 Frc consts  --      5.4422                 5.4165                 5.7120
 IR Inten    --     32.2602                73.2941                14.8353

                     43                     44                     45
                      A                      A                      A
 Frequencies --   3089.7076              3094.7199              3114.3238
 Red. masses --      1.0975                 1.0800                 1.0915
 Frc consts  --      6.1731                 6.0940                 6.2372
 IR Inten    --      9.2856                14.1042                12.3717

                     46                     47                     48
                      A                      A                      A
 Frequencies --   3137.9393              3248.9322              3432.7049
 Red. masses --      1.1037                 1.0737                 1.0732
 Frc consts  --      6.4032                 6.6777                 7.4506
 IR Inten    --     13.3765                25.3339                14.9397

 - Thermochemistry -
 -------------------
 Temperature   298.150 Kelvin.  Pressure   1.00000 Atm.
 Atom     1 has atomic number  6 and mass  12.00000

 Molecular mass:   127.08580 amu.
 Principal axes and moments of inertia in atomic units:
                           1         2         3
     Eigenvalues --   372.812552836.827873017.11001
           X            0.99994  -0.01036  -0.00394
           Y            0.01028   0.99973  -0.02085
           Z            0.00415   0.02081   0.99977
 This molecule is an asymmetric top.
 Rotational symmetry number  1.
 Rotational temperatures (Kelvin)      0.23233     0.03053     0.02871
 Rotational constants (GHZ):           4.84088     0.63618     0.59817
 Zero-point vibrational energy     383106.1 (Joules/Mol)
                                   91.56455 (Kcal/Mol)
 Warning -- explicit consideration of  14 degrees of freedom as
           vibrations may cause significant error
 Vibrational temperatures:     63.13    73.36   108.75   162.93   206.38
          (Kelvin)            332.40   376.29   467.17   530.38   578.08
                              629.90   735.97   822.52   868.22   962.19
                             1191.02  1270.40  1289.29  1400.47  1468.34
                             1541.16  1598.62  1635.91  1659.31  1707.79
                             1785.48  1825.33  1885.90  1918.06  2010.38
                             2078.21  2121.49  2126.43  2147.98  2149.29
                             2154.12  2176.79  2384.17  3378.32  4224.82
                             4239.59  4360.82  4445.40  4452.61  4480.82
                             4514.79  4674.49  4938.90

 Zero-point correction=                           0.145917 (Hartree/Particle)
 Thermal correction to Energy=                    0.156014
 Thermal correction to Enthalpy=                  0.156958
 Thermal correction to Gibbs Free Energy=         0.109168
 Sum of electronic and zero-point Energies=           -431.353883
 Sum of electronic and thermal Energies=              -431.343786
 Sum of electronic and thermal Enthalpies=            -431.342842
 Sum of electronic and thermal Free Energies=         -431.390632

                     E (Thermal)             CV                S
                      KCal/Mol        Cal/Mol-Kelvin    Cal/Mol-Kelvin
 Total                   97.900             34.519            100.583
 Electronic               0.000              0.000              0.000
 Translational            0.889              2.981             40.432
 Rotational               0.889              2.981             29.546
 Vibrational             96.123             28.558             30.604
 Vibration     1          0.595              1.980              5.076
 Vibration     2          0.595              1.977              4.779
 Vibration     3          0.599              1.965              4.002
 Vibration     4          0.607              1.938              3.213
 Vibration     5          0.616              1.910              2.757
 Vibration     6          0.653              1.794              1.871
 Vibration     7          0.669              1.743              1.651
 Vibration     8          0.709              1.626              1.286
 Vibration     9          0.741              1.537              1.085
 Vibration    10          0.767              1.466              0.956
 Vibration    11          0.798              1.388              0.834
 Vibration    12          0.867              1.224              0.630
 Vibration    13          0.928              1.093              0.501
 Vibration    14          0.962              1.024              0.444

 Optimization completed.
    -- Stationary point found.
 Normal termination of Gaussian 16 at Tue Jun  1 05:24:39 2021.
