 Gaussian 16, Revision A.03,
 Gaussian 16:  ES64L-G16RevA.03 25-Dec-2016

 -----------------------------
 # opt freq b3lyp/6-31g(2df,p)
 -----------------------------

 -------------------
 Title Card Required
 -------------------
 Symbolic Z-matrix:
 Charge =  0 Multiplicity = 1

 SCF Done:  E(RB3LYP) =  -361.394567262     A.U. after   13 cycles
 SCF Done:  E(RB3LYP) =  -361.397985060     A.U. after   12 cycles
 SCF Done:  E(RB3LYP) =  -361.398859071     A.U. after   11 cycles
 SCF Done:  E(RB3LYP) =  -361.399197260     A.U. after   11 cycles
 SCF Done:  E(RB3LYP) =  -361.399266946     A.U. after   10 cycles
 SCF Done:  E(RB3LYP) =  -361.399283565     A.U. after    9 cycles
 SCF Done:  E(RB3LYP) =  -361.399287498     A.U. after    8 cycles
 SCF Done:  E(RB3LYP) =  -361.399289116     A.U. after    8 cycles
 SCF Done:  E(RB3LYP) =  -361.399290005     A.U. after    8 cycles
 SCF Done:  E(RB3LYP) =  -361.399290626     A.U. after    8 cycles
 SCF Done:  E(RB3LYP) =  -361.399291020     A.U. after    8 cycles
 SCF Done:  E(RB3LYP) =  -361.399291077     A.U. after    7 cycles
 Optimization completed.
    -- Stationary point found.
 Normal termination of Gaussian 16 at Tue Jun  1 01:41:46 2021.

 ----------------------------------------------------------------------
 #N Geom=AllCheck Guess=TCheck SCRF=Check GenChk RB3LYP/6-31G(2df,p) Fr
 eq
 ----------------------------------------------------------------------

 Structure from the checkpoint file:  "CNpCpCpNpCCtN.chk"
 -------------------
 Title Card Required
 -------------------
 Charge =  0 Multiplicity = 1

                         Standard orientation:
 ---------------------------------------------------------------------
 Center     Atomic      Atomic             Coordinates (Angstroms)
 Number     Number       Type             X           Y           Z
 ---------------------------------------------------------------------
      1          6           0        2.428455    0.739570    0.206486
      2          7           0        1.383420   -0.159855   -0.274749
      3          6           0        1.714723   -1.534717    0.093172
      4          6           0        0.044598    0.267613    0.174996
      5          7           0       -0.291536    1.624533   -0.202979
      6          6           0       -1.035523   -0.664388   -0.427447
      7          6           0       -2.379748   -0.307288    0.016665
      8          7           0       -3.451033   -0.068203    0.376575
      9          1           0        3.393856    0.409943   -0.186712
     10          1           0        2.504163    0.767323    1.310748
     11          1           0        2.257281    1.756844   -0.149232
     12          1           0        2.747846   -1.741886   -0.198121
     13          1           0        1.084518   -2.253092   -0.435018
     14          1           0        1.628196   -1.728155    1.179224
     15          1           0       -0.033373    0.213508    1.277327
     16          1           0       -0.036335    1.795717   -1.171362
     17          1           0        0.179162    2.309405    0.374097
     18          1           0       -0.863360   -1.708032   -0.155475
     19          1           0       -0.982950   -0.601632   -1.520639
 ---------------------------------------------------------------------

 SCF Done:  E(RB3LYP) =  -361.399291077     A.U. after    1 cycles

 The electronic state is 1-A.
 Alpha  occ. eigenvalues --  -14.33627 -14.32463 -14.31475 -10.25989 -10.22802
 Alpha  occ. eigenvalues --  -10.21450 -10.21294 -10.20979  -0.95231  -0.89011
 Alpha  occ. eigenvalues --   -0.87631  -0.78000  -0.71304  -0.67719  -0.59637
 Alpha  occ. eigenvalues --   -0.53458  -0.51947  -0.48220  -0.47069  -0.45698
 Alpha  occ. eigenvalues --   -0.44450  -0.41348  -0.39901  -0.39082  -0.38536
 Alpha  occ. eigenvalues --   -0.37251  -0.34478  -0.31339  -0.31112  -0.26043
 Alpha  occ. eigenvalues --   -0.23314
 Alpha virt. eigenvalues --    0.04060   0.04902   0.06959   0.09249   0.10398
 Alpha virt. eigenvalues --    0.11747   0.13165   0.14177   0.15257   0.15829
 Alpha virt. eigenvalues --    0.16269   0.17114   0.19021   0.19705   0.21022

 Mulliken charges:
               1
     1  C   -0.326592
     2  N   -0.068072
     3  C   -0.327207
     4  C    0.070313
     5  N   -0.498938
     6  C   -0.360786
     7  C    0.289592
     8  N   -0.313782
     9  H    0.125341
    10  H    0.095152
    11  H    0.111459
    12  H    0.124719
    13  H    0.124738
    14  H    0.099766
    15  H    0.080854
    16  H    0.232428
    17  H    0.240115
    18  H    0.150283
    19  H    0.150620
 Sum of Mulliken charges =  -0.00000

 Dipole moment (field-independent basis, Debye):
    X=              5.1523    Y=             -0.4614    Z=             -0.6962  Tot=              5.2196
 Quadrupole moment (field-independent basis, Debye-Ang):
   XX=            -66.0492   YY=            -45.0886   ZZ=            -48.5335
   XY=              2.9022   XZ=              3.9100   YZ=             -0.0052

  Exact polarizability:  90.943  -1.687  69.524  -2.068   0.481  59.151
 Approx polarizability: 123.000  -5.964  97.235  -8.251   1.684  93.938

                      1                      2                      3
                      A                      A                      A
 Frequencies --     48.3447                66.7852               139.9621
 Red. masses --      2.6277                 3.9353                 4.9007
 Frc consts  --      0.0036                 0.0103                 0.0566
 IR Inten    --      2.8314                 2.6529                 3.1643

                      4                      5                      6
                      A                      A                      A
 Frequencies --    206.4802               219.7221               293.5894
 Red. masses --      1.3418                 1.1514                 1.5242
 Frc consts  --      0.0337                 0.0328                 0.0774
 IR Inten    --      0.0782                 1.6387                10.5515

                      7                      8                      9
                      A                      A                      A
 Frequencies --    305.3333               319.8019               397.7529
 Red. masses --      2.1266                 1.9306                 3.0966
 Frc consts  --      0.1168                 0.1163                 0.2886
 IR Inten    --      0.6548                15.9762                 2.2226

                     10                     11                     12
                      A                      A                      A
 Frequencies --    404.4686               417.7885               462.6792
 Red. masses --      2.5678                 3.5524                 2.4496
 Frc consts  --      0.2475                 0.3653                 0.3090
 IR Inten    --      9.9719                 7.7463                 3.6983

                     13                     14                     15
                      A                      A                      A
 Frequencies --    520.8171               564.3877               776.8234
 Red. masses --      2.3284                 3.2270                 1.7708
 Frc consts  --      0.3721                 0.6056                 0.6296
 IR Inten    --     12.4465                 7.3767               147.5678

                     16                     17                     18
                      A                      A                      A
 Frequencies --    878.4423               890.9034               952.3032
 Red. masses --      2.2829                 2.9731                 2.5141
 Frc consts  --      1.0379                 1.3903                 1.3433
 IR Inten    --     11.7510                52.8840                 0.8537

                     19                     20                     21
                      A                      A                      A
 Frequencies --    978.4611              1039.3018              1059.7432
 Red. masses --      2.6429                 2.4013                 1.5780
 Frc consts  --      1.4908                 1.5282                 1.0442
 IR Inten    --     16.4500                73.3566                12.5931

                     22                     23                     24
                      A                      A                      A
 Frequencies --   1111.2974              1137.6386              1159.4661
 Red. masses --      1.3937                 2.3916                 1.2562
 Frc consts  --      1.0141                 1.8237                 0.9950
 IR Inten    --      6.2413                 0.4937                 3.0988

                     25                     26                     27
                      A                      A                      A
 Frequencies --   1177.0369              1243.7328              1274.7589
 Red. masses --      1.4077                 2.5433                 1.7958
 Frc consts  --      1.1491                 2.3179                 1.7194
 IR Inten    --     14.1893                30.2964                25.0691

                     28                     29                     30
                      A                      A                      A
 Frequencies --   1296.5741              1314.8846              1366.0577
 Red. masses --      1.7416                 1.3776                 1.3436
 Frc consts  --      1.7250                 1.4033                 1.4773
 IR Inten    --      3.4226                 2.3556                36.1317

                     31                     32                     33
                      A                      A                      A
 Frequencies --   1416.4912              1441.1646              1464.7318
 Red. masses --      1.3490                 1.1645                 1.0958
 Frc consts  --      1.5948                 1.4251                 1.3852
 IR Inten    --     15.4245                 3.1358                 4.2265

                     34                     35                     36
                      A                      A                      A
 Frequencies --   1479.4825              1492.3564              1495.5998
 Red. masses --      1.1788                 1.0566                 1.0465
 Frc consts  --      1.5203                 1.3865                 1.3792
 IR Inten    --      3.6575                 9.2657                 0.5816

                     37                     38                     39
                      A                      A                      A
 Frequencies --   1505.6851              1515.4846              1659.7833
 Red. masses --      1.0456                 1.0499                 1.1000
 Frc consts  --      1.3967                 1.4206                 1.7854
 IR Inten    --      8.3479                17.5741                17.3475

                     40                     41                     42
                      A                      A                      A
 Frequencies --   2368.5718              2922.1469              2926.5744
 Red. masses --     12.6175                 1.0636                 1.0760
 Frc consts  --     41.7059                 5.3512                 5.4296
 IR Inten    --     11.0509                40.4716                21.3584

                     43                     44                     45
                      A                      A                      A
 Frequencies --   2936.2117              3052.6070              3079.6144
 Red. masses --      1.0648                 1.0637                 1.0726
 Frc consts  --      5.4089                 5.8399                 5.9936
 IR Inten    --    125.6674                 4.3330                16.3345

                     46                     47                     48
                      A                      A                      A
 Frequencies --   3083.3832              3109.0790              3123.5351
 Red. masses --      1.0710                 1.0987                 1.0976
 Frc consts  --      5.9990                 6.2573                 6.3094
 IR Inten    --     38.5643                10.5557                27.6961

                     49                     50                     51
                      A                      A                      A
 Frequencies --   3128.0947              3507.6848              3609.9963
 Red. masses --      1.1003                 1.0506                 1.0913
 Frc consts  --      6.3436                 7.6163                 8.3790
 IR Inten    --     21.2862                 1.0634                 4.3012

 - Thermochemistry -
 -------------------
 Temperature   298.150 Kelvin.  Pressure   1.00000 Atm.
 Atom     1 has atomic number  6 and mass  12.00000

 Molecular mass:   113.09530 amu.
 Principal axes and moments of inertia in atomic units:
                           1         2         3
     Eigenvalues --   436.401071544.363431868.76626
           X            0.99992  -0.00143   0.01224
           Y            0.00141   1.00000   0.00176
           Z           -0.01225  -0.00175   0.99992
 This molecule is an asymmetric top.
 Rotational symmetry number  1.
 Warning -- assumption of classical behavior for rotation
           may cause significant error
 Rotational temperatures (Kelvin)      0.19847     0.05608     0.04635
 Rotational constants (GHZ):           4.13551     1.16860     0.96574
 Zero-point vibrational energy     432710.9 (Joules/Mol)
                                  103.42039 (Kcal/Mol)
 Warning -- explicit consideration of  14 degrees of freedom as
           vibrations may cause significant error
 Vibrational temperatures:     69.56    96.09   201.37   297.08   316.13
          (Kelvin)            422.41   439.31   460.12   572.28   581.94
                              601.10   665.69   749.34   812.03  1117.68
                             1263.88  1281.81  1370.15  1407.79  1495.32
                             1524.73  1598.91  1636.81  1668.21  1693.49
                             1789.45  1834.09  1865.48  1891.83  1965.45
                             2038.01  2073.51  2107.42  2128.65  2147.17
                             2151.83  2166.35  2180.44  2388.06  3407.85
                             4204.32  4210.69  4224.55  4392.02  4430.88
                             4436.30  4473.27  4494.07  4500.63  5046.78
                             5193.98

 Zero-point correction=                           0.164811 (Hartree/Particle)
 Thermal correction to Energy=                    0.174345
 Thermal correction to Enthalpy=                  0.175290
 Thermal correction to Gibbs Free Energy=         0.130210
 Sum of electronic and zero-point Energies=           -361.234480
 Sum of electronic and thermal Energies=              -361.224946
 Sum of electronic and thermal Enthalpies=            -361.224001
 Sum of electronic and thermal Free Energies=         -361.269081

                     E (Thermal)             CV                S
                      KCal/Mol        Cal/Mol-Kelvin    Cal/Mol-Kelvin
 Total                  109.403             34.103             94.878
 Electronic               0.000              0.000              0.000
 Translational            0.889              2.981             40.085
 Rotational               0.889              2.981             28.623
 Vibrational            107.626             28.142             26.171
 Vibration     1          0.595              1.978              4.884
 Vibration     2          0.598              1.970              4.246
 Vibration     3          0.615              1.913              2.804
 Vibration     4          0.641              1.831              2.075
 Vibration     5          0.647              1.811              1.961
 Vibration     6          0.688              1.686              1.453
 Vibration     7          0.696              1.664              1.387
 Vibration     8          0.706              1.636              1.311
 Vibration     9          0.764              1.475              0.971
 Vibration    10          0.770              1.460              0.946
 Vibration    11          0.781              1.432              0.900
 Vibration    12          0.820              1.333              0.758
 Vibration    13          0.876              1.204              0.608
 Vibration    14          0.920              1.108              0.515

 Optimization completed.
    -- Stationary point found.
 Normal termination of Gaussian 16 at Tue Jun  1 02:05:39 2021.
