 Gaussian 16, Revision A.03,
 Gaussian 16:  ES64L-G16RevA.03 25-Dec-2016

 -----------------------------
 # opt freq b3lyp/6-31g(2df,p)
 -----------------------------

 -------------------
 Title Card Required
 -------------------
 Symbolic Z-matrix:
 Charge =  0 Multiplicity = 1

 SCF Done:  E(RB3LYP) =  -470.819943212     A.U. after   14 cycles
 SCF Done:  E(RB3LYP) =  -470.848491255     A.U. after   13 cycles
 SCF Done:  E(RB3LYP) =  -470.850290197     A.U. after   12 cycles
 SCF Done:  E(RB3LYP) =  -470.851576301     A.U. after   12 cycles
 SCF Done:  E(RB3LYP) =  -470.853251680     A.U. after   13 cycles
 SCF Done:  E(RB3LYP) =  -470.855364957     A.U. after   12 cycles
 SCF Done:  E(RB3LYP) =  -470.857031643     A.U. after   12 cycles
 SCF Done:  E(RB3LYP) =  -470.858564247     A.U. after   12 cycles
 SCF Done:  E(RB3LYP) =  -470.860046550     A.U. after   12 cycles
 SCF Done:  E(RB3LYP) =  -470.860568033     A.U. after   11 cycles
 SCF Done:  E(RB3LYP) =  -470.860823108     A.U. after   11 cycles
 SCF Done:  E(RB3LYP) =  -470.860897455     A.U. after   11 cycles
 SCF Done:  E(RB3LYP) =  -470.860928674     A.U. after   10 cycles
 SCF Done:  E(RB3LYP) =  -470.860943794     A.U. after   10 cycles
 SCF Done:  E(RB3LYP) =  -470.860946901     A.U. after    8 cycles
 SCF Done:  E(RB3LYP) =  -470.860947653     A.U. after    8 cycles
 SCF Done:  E(RB3LYP) =  -470.860947753     A.U. after    7 cycles
 Optimization completed.
    -- Stationary point found.
 Normal termination of Gaussian 16 at Tue Jun  1 18:02:15 2021.

 ----------------------------------------------------------------------
 #N Geom=AllCheck Guess=TCheck SCRF=Check GenChk RB3LYP/6-31G(2df,p) Fr
 eq
 ----------------------------------------------------------------------

 Structure from the checkpoint file:  "CNpCNCCtNpNdCN.chk"
 -------------------
 Title Card Required
 -------------------
 Charge =  0 Multiplicity = 1

                         Standard orientation:
 ---------------------------------------------------------------------
 Center     Atomic      Atomic             Coordinates (Angstroms)
 Number     Number       Type             X           Y           Z
 ---------------------------------------------------------------------
      1          6           0       -0.712580    2.067900   -0.271941
      2          7           0       -0.925308    0.725491    0.262264
      3          6           0        0.001392   -0.279072   -0.216277
      4          7           0        1.359638    0.125169    0.122723
      5          6           0        2.358292   -0.828183   -0.339948
      6          6           0        3.709110   -0.396272    0.029468
      7          7           0        4.774315   -0.072521    0.336197
      8          7           0       -2.284755    0.436022    0.238824
      9          6           0       -2.733532   -0.731423   -0.012941
     10          7           0       -4.082705   -1.019258    0.173958
     11          1           0        0.319533    2.368752   -0.095558
     12          1           0       -1.394146    2.747043    0.242294
     13          1           0       -0.917581    2.122136   -1.354542
     14          1           0       -0.047201   -0.423454   -1.314482
     15          1           0       -0.271381   -1.240161    0.251085
     16          1           0        1.424278    0.244147    1.129254
     17          1           0        2.305638   -0.892562   -1.434022
     18          1           0        2.217025   -1.857392    0.039520
     19          1           0       -2.142440   -1.599297   -0.308749
     20          1           0       -4.643092   -0.183959    0.291510
     21          1           0       -4.475028   -1.647275   -0.514239
 ---------------------------------------------------------------------

 SCF Done:  E(RB3LYP) =  -470.860947753     A.U. after    1 cycles

 The electronic state is 1-A.
 Alpha  occ. eigenvalues --  -14.36058 -14.34478 -14.33973 -14.33583 -14.33336
 Alpha  occ. eigenvalues --  -10.26681 -10.25021 -10.24310 -10.22481 -10.19720
 Alpha  occ. eigenvalues --   -0.99952  -0.94220  -0.91323  -0.89917  -0.81164
 Alpha  occ. eigenvalues --   -0.75151  -0.69013  -0.64731  -0.58707  -0.55876
 Alpha  occ. eigenvalues --   -0.53026  -0.50714  -0.49337  -0.47726  -0.46575
 Alpha  occ. eigenvalues --   -0.44082  -0.43486  -0.41733  -0.40160  -0.38043
 Alpha  occ. eigenvalues --   -0.36140  -0.36045  -0.33654  -0.33020  -0.29387
 Alpha  occ. eigenvalues --   -0.26900  -0.25206  -0.19399
 Alpha virt. eigenvalues --    0.01742   0.03256   0.03681   0.07768   0.08214
 Alpha virt. eigenvalues --    0.10054   0.10789   0.11815   0.14264   0.15092
 Alpha virt. eigenvalues --    0.15345   0.16282   0.17306   0.18040   0.19149

 Mulliken charges:
               1
     1  C   -0.298657
     2  N   -0.052846
     3  C   -0.076418
     4  N   -0.300754
     5  C   -0.260798
     6  C    0.256963
     7  N   -0.294592
     8  N   -0.200310
     9  C    0.069834
    10  N   -0.513368
    11  H    0.136999
    12  H    0.134155
    13  H    0.095437
    14  H    0.087834
    15  H    0.096589
    16  H    0.238628
    17  H    0.159867
    18  H    0.132698
    19  H    0.091868
    20  H    0.250857
    21  H    0.246015
 Sum of Mulliken charges =  -0.00000

 Dipole moment (field-independent basis, Debye):
    X=             -3.9760    Y=             -2.5158    Z=             -2.0630  Tot=              5.1375
 Quadrupole moment (field-independent basis, Debye-Ang):
   XX=            -77.0691   YY=            -56.4990   ZZ=            -59.4547
   XY=             -0.3860   XZ=              2.3049   YZ=              2.3331

  Exact polarizability: 131.389  12.525  85.179   2.000   3.636  61.826
 Approx polarizability: 166.389  25.873 131.819   7.030  10.005  98.148

                      1                      2                      3
                      A                      A                      A
 Frequencies --     39.4336                71.1734                93.4172
 Red. masses --      4.9940                 4.0653                 2.4628
 Frc consts  --      0.0046                 0.0121                 0.0127
 IR Inten    --      4.6930                 2.8264                 3.8544

                      4                      5                      6
                      A                      A                      A
 Frequencies --    125.4299               134.1177               172.0974
 Red. masses --      2.5838                 3.1533                 3.8268
 Frc consts  --      0.0240                 0.0334                 0.0668
 IR Inten    --      5.9055                 4.2078                 2.5966

                      7                      8                      9
                      A                      A                      A
 Frequencies --    197.8401               232.6869               284.6140
 Red. masses --      1.4187                 1.6358                 3.0376
 Frc consts  --      0.0327                 0.0522                 0.1450
 IR Inten    --      8.8403                10.7373                10.6864

                     10                     11                     12
                      A                      A                      A
 Frequencies --    323.3779               374.6711               392.5612
 Red. masses --      3.4795                 3.8168                 3.5719
 Frc consts  --      0.2144                 0.3157                 0.3243
 IR Inten    --      6.0248                14.4218                 2.3285

                     13                     14                     15
                      A                      A                      A
 Frequencies --    396.5637               417.5870               509.0805
 Red. masses --      2.3019                 1.9024                 3.3318
 Frc consts  --      0.2133                 0.1955                 0.5088
 IR Inten    --     11.3956                62.2269                 8.8693

                     16                     17                     18
                      A                      A                      A
 Frequencies --    563.8714               655.7464               707.3816
 Red. masses --      6.0520                 4.0598                 1.4412
 Frc consts  --      1.1337                 1.0285                 0.4249
 IR Inten    --      2.8934                12.7554               333.7792

                     19                     20                     21
                      A                      A                      A
 Frequencies --    808.6231               848.3958               928.7801
 Red. masses --      1.2360                 3.8069                 1.4466
 Frc consts  --      0.4762                 1.6144                 0.7352
 IR Inten    --     66.4367                11.0602                17.3788

                     22                     23                     24
                      A                      A                      A
 Frequencies --    951.3442               986.1565              1008.3962
 Red. masses --      3.4644                 1.6366                 2.4103
 Frc consts  --      1.8474                 0.9377                 1.4440
 IR Inten    --      2.3609                22.1032                24.6967

                     25                     26                     27
                      A                      A                      A
 Frequencies --   1040.6666              1127.2693              1134.7289
 Red. masses --      2.1479                 1.7591                 1.8662
 Frc consts  --      1.3705                 1.3170                 1.4158
 IR Inten    --      5.9129                14.5178                92.4985

                     28                     29                     30
                      A                      A                      A
 Frequencies --   1155.4183              1160.7179              1202.8655
 Red. masses --      2.9543                 1.6814                 1.5797
 Frc consts  --      2.3237                 1.3346                 1.3467
 IR Inten    --     30.0198                11.8490                30.9334

                     31                     32                     33
                      A                      A                      A
 Frequencies --   1245.5858              1261.1175              1301.4924
 Red. masses --      2.0124                 1.8119                 2.4516
 Frc consts  --      1.8396                 1.6979                 2.4467
 IR Inten    --     24.4921                55.9702                 7.5176

                     34                     35                     36
                      A                      A                      A
 Frequencies --   1309.3350              1368.7483              1402.4698
 Red. masses --      1.2924                 1.3240                 1.5020
 Frc consts  --      1.3054                 1.4614                 1.7406
 IR Inten    --      6.5814                33.7478                 9.4186

                     37                     38                     39
                      A                      A                      A
 Frequencies --   1424.5743              1447.8069              1480.1829
 Red. masses --      1.2122                 1.2401                 1.2093
 Frc consts  --      1.4494                 1.5315                 1.5610
 IR Inten    --      4.0055                 6.1315                56.3984

                     40                     41                     42
                      A                      A                      A
 Frequencies --   1488.3071              1492.2216              1509.1838
 Red. masses --      1.0749                 1.1031                 1.0507
 Frc consts  --      1.4028                 1.4472                 1.4100
 IR Inten    --     27.5515                 2.6310                 6.6141

                     43                     44                     45
                      A                      A                      A
 Frequencies --   1523.8318              1626.6675              1729.4965
 Red. masses --      1.0845                 1.1718                 5.7389
 Frc consts  --      1.4838                 1.8268                10.1139
 IR Inten    --      0.9067                37.3702                89.3765

                     46                     47                     48
                      A                      A                      A
 Frequencies --   2370.3004              2899.2370              2932.8878
 Red. masses --     12.6228                 1.0664                 1.0724
 Frc consts  --     41.7843                 5.2814                 5.4349
 IR Inten    --      3.8432                52.3988                50.8923

                     49                     50                     51
                      A                      A                      A
 Frequencies --   2957.0506              2964.4970              3047.9568
 Red. masses --      1.0897                 1.0592                 1.0844
 Frc consts  --      5.6138                 5.4845                 5.9356
 IR Inten    --     54.7496                79.0039                 7.2404

                     52                     53                     54
                      A                      A                      A
 Frequencies --   3106.3156              3108.0445              3163.6781
 Red. masses --      1.0860                 1.0733                 1.1036
 Frc consts  --      6.1739                 6.1087                 6.5082
 IR Inten    --     28.1325                28.4875                10.0781

                     55                     56                     57
                      A                      A                      A
 Frequencies --   3521.5958              3534.8540              3643.4593
 Red. masses --      1.0740                 1.0466                 1.0975
 Frc consts  --      7.8472                 7.7050                 8.5841
 IR Inten    --      4.7671                12.6720                13.2416

 - Thermochemistry -
 -------------------
 Temperature   298.150 Kelvin.  Pressure   1.00000 Atm.
 Atom     1 has atomic number  6 and mass  12.00000

 Molecular mass:   141.10145 amu.
 Principal axes and moments of inertia in atomic units:
                           1         2         3
     Eigenvalues --   489.811183810.043694197.81409
           X            1.00000   0.00125   0.00099
           Y           -0.00125   0.99998   0.00537
           Z           -0.00098  -0.00537   0.99999
 This molecule is an asymmetric top.
 Rotational symmetry number  1.
 Warning -- assumption of classical behavior for rotation
           may cause significant error
 Rotational temperatures (Kelvin)      0.17683     0.02273     0.02063
 Rotational constants (GHZ):           3.68457     0.47368     0.42992
 Zero-point vibrational energy     459999.5 (Joules/Mol)
                                  109.94252 (Kcal/Mol)
 Warning -- explicit consideration of  16 degrees of freedom as
           vibrations may cause significant error
 Vibrational temperatures:     56.74   102.40   134.41   180.47   192.97
          (Kelvin)            247.61   284.65   334.78   409.50   465.27
                              539.07   564.81   570.57   600.81   732.45
                              811.29   943.47  1017.76  1163.43  1220.65
                             1336.31  1368.77  1418.86  1450.86  1497.29
                             1621.89  1632.62  1662.39  1670.01  1730.66
                             1792.12  1814.47  1872.56  1883.84  1969.32
                             2017.84  2049.64  2083.07  2129.65  2141.34
                             2146.97  2171.38  2192.45  2340.41  2488.36
                             3410.33  4171.36  4219.77  4254.54  4265.25
                             4385.33  4469.30  4471.78  4551.83  5066.79
                             5085.87  5242.13

 Zero-point correction=                           0.175205 (Hartree/Particle)
 Thermal correction to Energy=                    0.186749
 Thermal correction to Enthalpy=                  0.187693
 Thermal correction to Gibbs Free Energy=         0.137125
 Sum of electronic and zero-point Energies=           -470.685743
 Sum of electronic and thermal Energies=              -470.674199
 Sum of electronic and thermal Enthalpies=            -470.673255
 Sum of electronic and thermal Free Energies=         -470.723822

                     E (Thermal)             CV                S
                      KCal/Mol        Cal/Mol-Kelvin    Cal/Mol-Kelvin
 Total                  117.187             40.433            106.428
 Electronic               0.000              0.000              0.000
 Translational            0.889              2.981             40.744
 Rotational               0.889              2.981             30.439
 Vibrational            115.409             34.471             35.245
 Vibration     1          0.594              1.981              5.287
 Vibration     2          0.598              1.968              4.121
 Vibration     3          0.602              1.954              3.587
 Vibration     4          0.610              1.928              3.015
 Vibration     5          0.613              1.919              2.886
 Vibration     6          0.626              1.877              2.412
 Vibration     7          0.637              1.843              2.153
 Vibration     8          0.653              1.791              1.858
 Vibration     9          0.683              1.702              1.506
 Vibration    10          0.708              1.629              1.293
 Vibration    11          0.746              1.524              1.061
 Vibration    12          0.760              1.486              0.990
 Vibration    13          0.763              1.478              0.975
 Vibration    14          0.781              1.432              0.900
 Vibration    15          0.864              1.230              0.636
 Vibration    16          0.920              1.109              0.516

 Optimization completed.
    -- Stationary point found.
 Normal termination of Gaussian 16 at Tue Jun  1 18:33:59 2021.
