 Gaussian 16, Revision A.03,
 Gaussian 16:  ES64L-G16RevA.03 25-Dec-2016

 -----------------------------
 # opt freq b3lyp/6-31g(2df,p)
 -----------------------------

 -------------------
 Title Card Required
 -------------------
 Symbolic Z-matrix:
 Charge =  0 Multiplicity = 1

 SCF Done:  E(RB3LYP) =  -456.024451048     A.U. after   14 cycles
 SCF Done:  E(RB3LYP) =  -456.051449787     A.U. after   12 cycles
 SCF Done:  E(RB3LYP) =  -456.053466524     A.U. after   12 cycles
 SCF Done:  E(RB3LYP) =  -456.054354108     A.U. after   11 cycles
 SCF Done:  E(RB3LYP) =  -456.054632338     A.U. after   11 cycles
 SCF Done:  E(RB3LYP) =  -456.054782058     A.U. after   11 cycles
 SCF Done:  E(RB3LYP) =  -456.054857041     A.U. after   11 cycles
 SCF Done:  E(RB3LYP) =  -456.054880273     A.U. after   10 cycles
 SCF Done:  E(RB3LYP) =  -456.054891922     A.U. after    9 cycles
 SCF Done:  E(RB3LYP) =  -456.054893649     A.U. after    9 cycles
 SCF Done:  E(RB3LYP) =  -456.054893970     A.U. after    7 cycles
 SCF Done:  E(RB3LYP) =  -456.054894105     A.U. after    7 cycles
 SCF Done:  E(RB3LYP) =  -456.054894133     A.U. after    7 cycles
 Optimization completed.
    -- Stationary point found.
 Normal termination of Gaussian 16 at Tue Jun  1 09:57:12 2021.

 ----------------------------------------------------------------------
 #N Geom=AllCheck Guess=TCheck SCRF=Check GenChk RB3LYP/6-31G(2df,p) Fr
 eq
 ----------------------------------------------------------------------

 Structure from the checkpoint file:  "CNpCNpCCNCCtN.chk"
 -------------------
 Title Card Required
 -------------------
 Charge =  0 Multiplicity = 1

                         Standard orientation:
 ---------------------------------------------------------------------
 Center     Atomic      Atomic             Coordinates (Angstroms)
 Number     Number       Type             X           Y           Z
 ---------------------------------------------------------------------
      1          6           0       -2.911480    1.527107    0.224047
      2          7           0       -2.011020    0.380675    0.172986
      3          6           0       -2.583030   -0.721748   -0.586373
      4          7           0       -3.718512   -1.280699    0.136444
      5          6           0       -0.665975    0.735248   -0.267804
      6          6           0        0.404799   -0.170479    0.348761
      7          7           0        1.729452    0.213438   -0.132192
      8          6           0        2.790653   -0.611377    0.429386
      9          6           0        4.108155   -0.171965   -0.039661
     10          7           0        5.148569    0.187308   -0.389405
     11          1           0       -3.895584    1.185438    0.548016
     12          1           0       -3.023745    2.029494   -0.755352
     13          1           0       -2.538930    2.261902    0.944299
     14          1           0       -1.775197   -1.445023   -0.777413
     15          1           0       -2.954559   -0.391406   -1.576401
     16          1           0       -3.390591   -1.758732    0.970026
     17          1           0       -4.200100   -1.962614   -0.440201
     18          1           0       -0.469575    1.764575    0.054750
     19          1           0       -0.557313    0.731190   -1.366917
     20          1           0        0.235191   -1.213607    0.054216
     21          1           0        0.308775   -0.134095    1.448316
     22          1           0        1.910232    1.187786    0.090289
     23          1           0        2.639156   -1.649179    0.106301
     24          1           0        2.814081   -0.631515    1.535103
 ---------------------------------------------------------------------

 SCF Done:  E(RB3LYP) =  -456.054894133     A.U. after    1 cycles

 The electronic state is 1-A.
 Alpha  occ. eigenvalues --  -14.33942 -14.33044 -14.32257 -14.31350 -10.26118
 Alpha  occ. eigenvalues --  -10.23340 -10.22176 -10.21835 -10.21310 -10.19478
 Alpha  occ. eigenvalues --   -0.94106  -0.93014  -0.89778  -0.86401  -0.76868
 Alpha  occ. eigenvalues --   -0.70851  -0.68428  -0.63488  -0.58510  -0.53640
 Alpha  occ. eigenvalues --   -0.50398  -0.50060  -0.49211  -0.47341  -0.45706
 Alpha  occ. eigenvalues --   -0.43852  -0.43161  -0.40824  -0.40246  -0.37937
 Alpha  occ. eigenvalues --   -0.37409  -0.36285  -0.35480  -0.34998  -0.33115
 Alpha  occ. eigenvalues --   -0.32642  -0.24891  -0.24427  -0.21881
 Alpha virt. eigenvalues --    0.02204   0.03982   0.07508   0.07994   0.09348
 Alpha virt. eigenvalues --    0.10070   0.11750   0.13301   0.15020   0.15217
 Alpha virt. eigenvalues --    0.15797   0.16097   0.16776   0.17342   0.18227

 Mulliken charges:
               1
     1  C   -0.327042
     2  N   -0.050597
     3  C   -0.101942
     4  N   -0.497999
     5  C   -0.168185
     6  C   -0.127766
     7  N   -0.298218
     8  C   -0.258808
     9  C    0.255764
    10  N   -0.297632
    11  H    0.144093
    12  H    0.088668
    13  H    0.111445
    14  H    0.082471
    15  H    0.081643
    16  H    0.226531
    17  H    0.227145
    18  H    0.096290
    19  H    0.098686
    20  H    0.105764
    21  H    0.091553
    22  H    0.230803
    23  H    0.156079
    24  H    0.131254
 Sum of Mulliken charges =  -0.00000

 Dipole moment (field-independent basis, Debye):
    X=             -3.4377    Y=             -1.5561    Z=              1.2280  Tot=              3.9683
 Quadrupole moment (field-independent basis, Debye-Ang):
   XX=            -90.9506   YY=            -54.9051   ZZ=            -62.2685
   XY=              0.2262   XZ=              8.7337   YZ=              0.7485

  Exact polarizability: 121.841   4.253  84.204  -2.371  -1.342  75.077
 Approx polarizability: 148.913  10.582 121.745  -7.224  -3.089 116.639

                      1                      2                      3
                      A                      A                      A
 Frequencies --     33.3152                61.8270                64.0926
 Red. masses --      4.1135                 2.8306                 3.2648
 Frc consts  --      0.0027                 0.0064                 0.0079
 IR Inten    --      5.8655                 4.9535                 0.8242

                      4                      5                      6
                      A                      A                      A
 Frequencies --    113.6110               116.1980               132.7373
 Red. masses --      4.1261                 2.9223                 2.1463
 Frc consts  --      0.0314                 0.0232                 0.0223
 IR Inten    --      3.1863                 1.6411                 1.3811

                      7                      8                      9
                      A                      A                      A
 Frequencies --    202.6247               234.7707               255.5569
 Red. masses --      2.9442                 1.1292                 1.4195
 Frc consts  --      0.0712                 0.0367                 0.0546
 IR Inten    --      4.7559                12.2137                15.7203

                     10                     11                     12
                      A                      A                      A
 Frequencies --    277.2614               325.4855               334.8364
 Red. masses --      2.2115                 3.4680                 2.8212
 Frc consts  --      0.1002                 0.2165                 0.1864
 IR Inten    --      8.6461                 8.8411                 1.1998

                     13                     14                     15
                      A                      A                      A
 Frequencies --    389.8793               394.6980               465.1925
 Red. masses --      2.4920                 3.4956                 3.2075
 Frc consts  --      0.2232                 0.3208                 0.4090
 IR Inten    --      1.9437                 3.0305                 5.4359

                     16                     17                     18
                      A                      A                      A
 Frequencies --    538.4922               598.3358               774.1236
 Red. masses --      4.1352                 4.4098                 1.2251
 Frc consts  --      0.7065                 0.9302                 0.4326
 IR Inten    --     11.1399                 3.4779                77.5069

                     19                     20                     21
                      A                      A                      A
 Frequencies --    800.7234               825.7586               872.4108
 Red. masses --      1.2737                 1.5363                 1.9692
 Frc consts  --      0.4812                 0.6172                 0.8830
 IR Inten    --     12.7318                87.9348                59.0886

                     22                     23                     24
                      A                      A                      A
 Frequencies --    940.0251               991.6968              1000.8112
 Red. masses --      4.1258                 1.7587                 1.5663
 Frc consts  --      2.1480                 1.0190                 0.9243
 IR Inten    --      0.7182                14.7459                 4.4513

                     25                     26                     27
                      A                      A                      A
 Frequencies --   1028.5542              1057.6534              1086.4059
 Red. masses --      2.8346                 2.5111                 2.6377
 Frc consts  --      1.7668                 1.6550                 1.8342
 IR Inten    --      4.7349                 3.7086                 5.5445

                     28                     29                     30
                      A                      A                      A
 Frequencies --   1095.3087              1120.9136              1148.5559
 Red. masses --      2.1928                 2.0218                 3.6818
 Frc consts  --      1.5500                 1.4967                 2.8617
 IR Inten    --     43.7748                22.1025                54.7752

                     31                     32                     33
                      A                      A                      A
 Frequencies --   1149.9213              1190.9599              1219.0653
 Red. masses --      1.3425                 1.3839                 1.5144
 Frc consts  --      1.0460                 1.1565                 1.3260
 IR Inten    --      7.6948                35.1230                13.8548

                     34                     35                     36
                      A                      A                      A
 Frequencies --   1251.2324              1274.9431              1296.7499
 Red. masses --      1.8351                 1.3582                 1.4828
 Frc consts  --      1.6928                 1.3008                 1.4691
 IR Inten    --     18.2205                 4.8695                28.5001

                     37                     38                     39
                      A                      A                      A
 Frequencies --   1319.8406              1340.5602              1356.4574
 Red. masses --      1.2266                 1.3547                 1.2750
 Frc consts  --      1.2590                 1.4344                 1.3823
 IR Inten    --     28.2893                 4.4689                 6.5275

                     40                     41                     42
                      A                      A                      A
 Frequencies --   1389.5558              1424.9981              1437.8363
 Red. masses --      1.4212                 1.3542                 1.2954
 Frc consts  --      1.6168                 1.6202                 1.5778
 IR Inten    --      4.6860                 2.8786                23.8220

                     43                     44                     45
                      A                      A                      A
 Frequencies --   1463.8265              1489.3651              1491.2904
 Red. masses --      1.2458                 1.0747                 1.0604
 Frc consts  --      1.5728                 1.4045                 1.3895
 IR Inten    --     21.8906                 3.5281                16.7714

                     46                     47                     48
                      A                      A                      A
 Frequencies --   1498.1896              1502.8536              1513.0412
 Red. masses --      1.1931                 1.1085                 1.0540
 Frc consts  --      1.5778                 1.4750                 1.4216
 IR Inten    --     15.3051                13.0393                 9.1705

                     49                     50                     51
                      A                      A                      A
 Frequencies --   1519.4050              1522.2365              1641.3450
 Red. masses --      1.0854                 1.0983                 1.1002
 Frc consts  --      1.4763                 1.4995                 1.7464
 IR Inten    --      4.7429                 0.9042                29.6028

                     52                     53                     54
                      A                      A                      A
 Frequencies --   2368.6645              2909.6774              2929.8856
 Red. masses --     12.6237                 1.0692                 1.0609
 Frc consts  --     41.7296                 5.3335                 5.3656
 IR Inten    --      3.7144                61.2202                93.6444

                     55                     56                     57
                      A                      A                      A
 Frequencies --   2931.4554              2944.2364              2956.5771
 Red. masses --      1.0721                 1.0709                 1.0711
 Frc consts  --      5.4284                 5.4695                 5.5164
 IR Inten    --     30.2300                 5.1906               125.7792

                     58                     59                     60
                      A                      A                      A
 Frequencies --   2979.7022              3036.5934              3044.7617
 Red. masses --      1.0882                 1.0856                 1.0843
 Frc consts  --      5.6924                 5.8977                 5.9224
 IR Inten    --     80.0547                 2.6336                 8.9377

                     61                     62                     63
                      A                      A                      A
 Frequencies --   3057.2633              3071.9818              3138.6997
 Red. masses --      1.0926                 1.0753                 1.0982
 Frc consts  --      6.0171                 5.9788                 6.3742
 IR Inten    --     44.4024                43.0613                 9.8341

                     64                     65                     66
                      A                      A                      A
 Frequencies --   3498.5748              3512.9843              3586.2769
 Red. masses --      1.0489                 1.0739                 1.0930
 Frc consts  --      7.5646                 7.8083                 8.2821
 IR Inten    --      0.1145                 1.0609                 0.5982

 - Thermochemistry -
 -------------------
 Temperature   298.150 Kelvin.  Pressure   1.00000 Atm.
 Atom     1 has atomic number  6 and mass  12.00000

 Molecular mass:   142.12185 amu.
 Principal axes and moments of inertia in atomic units:
                           1         2         3
     Eigenvalues --   451.558024511.394244786.54878
           X            0.99997  -0.00349   0.00674
           Y            0.00350   0.99999  -0.00098
           Z           -0.00674   0.00100   0.99998
 This molecule is an asymmetric top.
 Rotational symmetry number  1.
 Warning -- assumption of classical behavior for rotation
           may cause significant error
 Rotational temperatures (Kelvin)      0.19181     0.01920     0.01810
 Rotational constants (GHZ):           3.99670     0.40004     0.37704
 Zero-point vibrational energy     553529.2 (Joules/Mol)
                                  132.29667 (Kcal/Mol)
 Warning -- explicit consideration of  17 degrees of freedom as
           vibrations may cause significant error
 Vibrational temperatures:     47.93    88.96    92.22   163.46   167.18
          (Kelvin)            190.98   291.53   337.78   367.69   398.92
                              468.30   481.75   560.95   567.88   669.31
                              774.77   860.87  1113.79  1152.06  1188.08
                             1255.20  1352.49  1426.83  1439.94  1479.86
                             1521.73  1563.10  1575.90  1612.74  1652.52
                             1654.48  1713.53  1753.96  1800.24  1834.36
                             1865.73  1898.96  1928.77  1951.64  1999.26
                             2050.25  2068.73  2106.12  2142.86  2145.63
                             2155.56  2162.27  2176.93  2186.08  2190.16
                             2361.53  3407.98  4186.38  4215.45  4217.71
                             4236.10  4253.86  4287.13  4368.98  4380.73
                             4398.72  4419.90  4515.89  5033.67  5054.40
                             5159.85

 Zero-point correction=                           0.210828 (Hartree/Particle)
 Thermal correction to Energy=                    0.222994
 Thermal correction to Enthalpy=                  0.223939
 Thermal correction to Gibbs Free Energy=         0.171465
 Sum of electronic and zero-point Energies=           -455.844066
 Sum of electronic and thermal Energies=              -455.831900
 Sum of electronic and thermal Enthalpies=            -455.830955
 Sum of electronic and thermal Free Energies=         -455.883429

                     E (Thermal)             CV                S
                      KCal/Mol        Cal/Mol-Kelvin    Cal/Mol-Kelvin
 Total                  139.931             42.423            110.440
 Electronic               0.000              0.000              0.000
 Translational            0.889              2.981             40.766
 Rotational               0.889              2.981             30.656
 Vibrational            138.154             36.461             39.018
 Vibration     1          0.594              1.983              5.622
 Vibration     2          0.597              1.973              4.398
 Vibration     3          0.597              1.971              4.327
 Vibration     4          0.607              1.938              3.206
 Vibration     5          0.608              1.936              3.163
 Vibration     6          0.613              1.921              2.906
 Vibration     7          0.639              1.836              2.109
 Vibration     8          0.655              1.788              1.842
 Vibration     9          0.666              1.753              1.692
 Vibration    10          0.678              1.716              1.551
 Vibration    11          0.710              1.625              1.282
 Vibration    12          0.716              1.606              1.237
 Vibration    13          0.758              1.492              1.001
 Vibration    14          0.762              1.482              0.982
 Vibration    15          0.823              1.327              0.751
 Vibration    16          0.894              1.165              0.569
 Vibration    17          0.956              1.035              0.453

 Optimization completed.
    -- Stationary point found.
 Normal termination of Gaussian 16 at Tue Jun  1 10:38:27 2021.
