 Gaussian 16, Revision A.03,
 Gaussian 16:  ES64L-G16RevA.03 25-Dec-2016

 -----------------------------
 # opt freq b3lyp/6-31g(2df,p)
 -----------------------------

 -------------------
 Title Card Required
 -------------------
 Symbolic Z-matrix:
 Charge =  0 Multiplicity = 1

 SCF Done:  E(RB3LYP) =  -511.347372141     A.U. after   13 cycles
 SCF Done:  E(RB3LYP) =  -511.356155767     A.U. after   12 cycles
 SCF Done:  E(RB3LYP) =  -511.358131478     A.U. after   11 cycles
 SCF Done:  E(RB3LYP) =  -511.358755846     A.U. after   11 cycles
 SCF Done:  E(RB3LYP) =  -511.358931510     A.U. after   11 cycles
 SCF Done:  E(RB3LYP) =  -511.359043680     A.U. after   10 cycles
 SCF Done:  E(RB3LYP) =  -511.359150001     A.U. after   11 cycles
 SCF Done:  E(RB3LYP) =  -511.359235666     A.U. after   10 cycles
 SCF Done:  E(RB3LYP) =  -511.359919636     A.U. after   12 cycles
 SCF Done:  E(RB3LYP) =  -511.359815243     A.U. after   11 cycles
 SCF Done:  E(RB3LYP) =  -511.365506161     A.U. after   11 cycles
 SCF Done:  E(RB3LYP) =  -511.366865667     A.U. after   11 cycles
 SCF Done:  E(RB3LYP) =  -511.366556583     A.U. after   11 cycles
 SCF Done:  E(RB3LYP) =  -511.367773018     A.U. after   11 cycles
 SCF Done:  E(RB3LYP) =  -511.367957285     A.U. after   10 cycles
 SCF Done:  E(RB3LYP) =  -511.367995938     A.U. after   10 cycles
 SCF Done:  E(RB3LYP) =  -511.367999265     A.U. after    8 cycles
 SCF Done:  E(RB3LYP) =  -511.368000046     A.U. after    8 cycles
 SCF Done:  E(RB3LYP) =  -511.368000114     A.U. after    6 cycles
 Optimization completed.
    -- Stationary point found.
 Normal termination of Gaussian 16 at Tue Jun  1 17:24:20 2021.

 ----------------------------------------------------------------------
 #N Geom=AllCheck Guess=TCheck SCRF=Check GenChk RB3LYP/6-31G(2df,p) Fr
 eq
 ----------------------------------------------------------------------

 Structure from the checkpoint file:  "CNpCNCCCCtNpNN.chk"
 -------------------
 Title Card Required
 -------------------
 Charge =  0 Multiplicity = 1

                         Standard orientation:
 ---------------------------------------------------------------------
 Center     Atomic      Atomic             Coordinates (Angstroms)
 Number     Number       Type             X           Y           Z
 ---------------------------------------------------------------------
      1          6           0       -2.438584    0.651284   -1.509716
      2          7           0       -2.201999    0.099621   -0.181839
      3          6           0       -1.562131    1.047735    0.726548
      4          7           0       -0.188397    1.276258    0.311092
      5          6           0        0.725186    0.191697    0.648544
      6          6           0        2.102145    0.426776    0.028677
      7          6           0        3.077876   -0.719174    0.358716
      8          6           0        4.406286   -0.509193   -0.211979
      9          7           0        5.452009   -0.327546   -0.668969
     10          7           0       -3.374618   -0.438141    0.427176
     11          7           0       -3.643265   -1.785643    0.062460
     12          1           0       -1.502944    1.065498   -1.890193
     13          1           0       -3.199525    1.454901   -1.501067
     14          1           0       -2.773454   -0.134841   -2.193899
     15          1           0       -1.661446    0.611068    1.731432
     16          1           0       -2.070579    2.029304    0.734618
     17          1           0        0.143449    2.154203    0.693978
     18          1           0        0.288339   -0.731079    0.251355
     19          1           0        0.828681    0.046574    1.741396
     20          1           0        2.524008    1.370396    0.395235
     21          1           0        2.000340    0.527943   -1.055871
     22          1           0        2.685493   -1.671403   -0.017460
     23          1           0        3.181828   -0.831338    1.444515
     24          1           0       -4.191539    0.097358    0.130755
     25          1           0       -2.976443   -2.359193    0.570883
     26          1           0       -3.446982   -1.935988   -0.929862
 ---------------------------------------------------------------------

 SCF Done:  E(RB3LYP) =  -511.368000114     A.U. after    1 cycles

 The electronic state is 1-A.
 Alpha  occ. eigenvalues --  -14.36653 -14.34750 -14.33729 -14.32610 -14.32427
 Alpha  occ. eigenvalues --  -10.23703 -10.23374 -10.21807 -10.21777 -10.20665
 Alpha  occ. eigenvalues --  -10.20573  -1.00573  -0.92454  -0.89891  -0.87169
 Alpha  occ. eigenvalues --   -0.81295  -0.73781  -0.72444  -0.68338  -0.62347
 Alpha  occ. eigenvalues --   -0.59716  -0.52631  -0.51626  -0.50821  -0.49684
 Alpha  occ. eigenvalues --   -0.48696  -0.47218  -0.45321  -0.43798  -0.43093
 Alpha  occ. eigenvalues --   -0.41637  -0.40372  -0.38713  -0.38359  -0.36605
 Alpha  occ. eigenvalues --   -0.35613  -0.35010  -0.32083  -0.31989  -0.26611
 Alpha  occ. eigenvalues --   -0.24670  -0.23988  -0.23198
 Alpha virt. eigenvalues --    0.03685   0.04208   0.07014   0.07836   0.08305
 Alpha virt. eigenvalues --    0.09404   0.11832   0.11890   0.13053   0.13573
 Alpha virt. eigenvalues --    0.14838   0.16011   0.16056   0.16546   0.17340

 Mulliken charges:
               1
     1  C   -0.331248
     2  N   -0.046255
     3  C   -0.098379
     4  N   -0.295973
     5  C   -0.129102
     6  C   -0.193457
     7  C   -0.338514
     8  C    0.256937
     9  N   -0.304303
    10  N   -0.250637
    11  N   -0.439132
    12  H    0.143499
    13  H    0.092310
    14  H    0.113424
    15  H    0.096175
    16  H    0.075511
    17  H    0.219201
    18  H    0.119051
    19  H    0.079292
    20  H    0.114743
    21  H    0.130378
    22  H    0.153326
    23  H    0.152307
    24  H    0.222136
    25  H    0.239897
    26  H    0.218813
 Sum of Mulliken charges =  -0.00000

 Dipole moment (field-independent basis, Debye):
    X=             -3.0512    Y=              0.5431    Z=              0.8378  Tot=              3.2104
 Quadrupole moment (field-independent basis, Debye-Ang):
   XX=           -104.0377   YY=            -62.9367   ZZ=            -66.8312
   XY=             -4.3091   XZ=             12.9479   YZ=              2.1858

  Exact polarizability: 127.232   2.423  91.727  -3.101  -0.918  85.756
 Approx polarizability: 159.281   6.408 134.451  -9.905  -2.414 129.678

                      1                      2                      3
                      A                      A                      A
 Frequencies --     30.3862                44.4071                62.7713
 Red. masses --      5.0484                 4.1111                 2.3834
 Frc consts  --      0.0027                 0.0048                 0.0055
 IR Inten    --      4.0236                 3.0193                 3.4793

                      4                      5                      6
                      A                      A                      A
 Frequencies --     92.1841               105.1434               121.4255
 Red. masses --      3.3856                 2.4868                 2.9400
 Frc consts  --      0.0170                 0.0162                 0.0255
 IR Inten    --      5.5538                 2.0623                 1.6887

                      7                      8                      9
                      A                      A                      A
 Frequencies --    150.3731               209.6625               247.2294
 Red. masses --      2.4373                 3.3844                 1.0984
 Frc consts  --      0.0325                 0.0877                 0.0396
 IR Inten    --      0.1527                 3.6523                 0.9067

                     10                     11                     12
                      A                      A                      A
 Frequencies --    264.2437               307.1251               317.0387
 Red. masses --      2.9243                 1.8381                 2.2345
 Frc consts  --      0.1203                 0.1022                 0.1323
 IR Inten    --     23.3860                15.4030                 4.8034

                     13                     14                     15
                      A                      A                      A
 Frequencies --    350.4139               392.5705               398.5240
 Red. masses --      3.4467                 2.4230                 3.4708
 Frc consts  --      0.2494                 0.2200                 0.3248
 IR Inten    --      2.3009                 2.6263                 0.6349

                     16                     17                     18
                      A                      A                      A
 Frequencies --    455.4994               499.8650               549.8220
 Red. masses --      2.0110                 4.3283                 3.2860
 Frc consts  --      0.2458                 0.6372                 0.5853
 IR Inten    --     16.1485                 1.9852                 1.6103

                     19                     20                     21
                      A                      A                      A
 Frequencies --    590.2873               731.4861               752.4542
 Red. masses --      3.3965                 1.5636                 1.1175
 Frc consts  --      0.6973                 0.4929                 0.3728
 IR Inten    --      3.8296               114.6826                 2.1970

                     22                     23                     24
                      A                      A                      A
 Frequencies --    800.8081               870.1433               908.9911
 Red. masses --      2.5290                 1.3532                 3.9271
 Frc consts  --      0.9555                 0.6037                 1.9118
 IR Inten    --      6.6981                 0.6686                30.2742

                     25                     26                     27
                      A                      A                      A
 Frequencies --    933.8395               957.4494               988.4150
 Red. masses --      3.8794                 1.9035                 2.3124
 Frc consts  --      1.9933                 1.0281                 1.3310
 IR Inten    --     22.8731               145.3973                 3.7910

                     28                     29                     30
                      A                      A                      A
 Frequencies --   1027.8877              1042.2630              1054.8979
 Red. masses --      2.7071                 1.7224                 2.5181
 Frc consts  --      1.6852                 1.1024                 1.6510
 IR Inten    --      7.2976                18.3584                 4.3987

                     31                     32                     33
                      A                      A                      A
 Frequencies --   1092.3552              1128.6616              1137.4614
 Red. masses --      2.1933                 1.4900                 1.7119
 Frc consts  --      1.5419                 1.1183                 1.3050
 IR Inten    --     10.5109                 0.7167                18.6837

                     34                     35                     36
                      A                      A                      A
 Frequencies --   1152.8966              1193.9610              1196.1371
 Red. masses --      2.8248                 2.2527                 1.5940
 Frc consts  --      2.2122                 1.8921                 1.3437
 IR Inten    --     59.7332                19.5667                11.7548

                     37                     38                     39
                      A                      A                      A
 Frequencies --   1211.3578              1250.5078              1275.0605
 Red. masses --      1.5839                 1.8762                 1.4326
 Frc consts  --      1.3694                 1.7286                 1.3722
 IR Inten    --     50.6182                10.1400                 1.9771

                     40                     41                     42
                      A                      A                      A
 Frequencies --   1297.3463              1313.0643              1319.3621
 Red. masses --      1.1955                 1.2746                 1.0823
 Frc consts  --      1.1855                 1.2948                 1.1100
 IR Inten    --     10.8817                 0.2540                 4.3978

                     43                     44                     45
                      A                      A                      A
 Frequencies --   1341.7272              1364.0120              1408.4003
 Red. masses --      1.3952                 1.3948                 1.3550
 Frc consts  --      1.4799                 1.5290                 1.5836
 IR Inten    --      5.8123                 2.6727                35.8498

                     46                     47                     48
                      A                      A                      A
 Frequencies --   1412.5495              1439.9114              1469.4006
 Red. masses --      1.3554                 1.2213                 1.0824
 Frc consts  --      1.5935                 1.4919                 1.3769
 IR Inten    --      2.8964                19.9147                 2.1566

                     49                     50                     51
                      A                      A                      A
 Frequencies --   1484.0953              1491.3462              1496.1976
 Red. masses --      1.0630                 1.2193                 1.0851
 Frc consts  --      1.3794                 1.5978                 1.4312
 IR Inten    --      8.2450                 7.6322                 2.4549

                     52                     53                     54
                      A                      A                      A
 Frequencies --   1503.1717              1509.8840              1519.4310
 Red. masses --      1.0567                 1.1003                 1.0893
 Frc consts  --      1.4068                 1.4779                 1.4816
 IR Inten    --      7.7509                 2.7245                 1.5196

                     55                     56                     57
                      A                      A                      A
 Frequencies --   1534.0050              1689.2511              2363.2673
 Red. masses --      1.1423                 1.0635                12.6093
 Frc consts  --      1.5837                 1.7880                41.4922
 IR Inten    --      2.2082                13.9661                13.1795

                     58                     59                     60
                      A                      A                      A
 Frequencies --   2914.2689              2926.8050              2933.7285
 Red. masses --      1.0727                 1.0620                 1.0634
 Frc consts  --      5.3677                 5.3599                 5.3923
 IR Inten    --     75.8191                37.8079               127.5483

                     61                     62                     63
                      A                      A                      A
 Frequencies --   3003.3375              3034.0550              3042.1098
 Red. masses --      1.0938                 1.0607                 1.0641
 Frc consts  --      5.8132                 5.7532                 5.8023
 IR Inten    --     38.2032                 0.8954                16.0643

                     64                     65                     66
                      A                      A                      A
 Frequencies --   3066.4927              3069.3902              3071.1005
 Red. masses --      1.0824                 1.0761                 1.0996
 Frc consts  --      5.9970                 5.9734                 6.1103
 IR Inten    --     14.8211                30.9151                 0.0697

                     67                     68                     69
                      A                      A                      A
 Frequencies --   3100.5760              3131.2810              3400.5461
 Red. masses --      1.1019                 1.0980                 1.0557
 Frc consts  --      6.2412                 6.3432                 7.1925
 IR Inten    --     25.6361                 9.5913                10.8508

                     70                     71                     72
                      A                      A                      A
 Frequencies --   3417.9932              3535.1983              3538.2517
 Red. masses --      1.0733                 1.0847                 1.0742
 Frc consts  --      7.3879                 7.9870                 7.9232
 IR Inten    --      9.0202                 0.3086                 0.2594

 - Thermochemistry -
 -------------------
 Temperature   298.150 Kelvin.  Pressure   1.00000 Atm.
 Atom     1 has atomic number  6 and mass  12.00000

 Molecular mass:   157.13275 amu.
 Principal axes and moments of inertia in atomic units:
                           1         2         3
     Eigenvalues --   728.292285373.560785574.50856
           X            0.99994  -0.00018   0.01122
           Y            0.00032   0.99993  -0.01211
           Z           -0.01122   0.01211   0.99986
 This molecule is an asymmetric top.
 Rotational symmetry number  1.
 Warning -- assumption of classical behavior for rotation
           may cause significant error
 Rotational temperatures (Kelvin)      0.11893     0.01612     0.01554
 Rotational constants (GHZ):           2.47805     0.33586     0.32375
 Zero-point vibrational energy     598357.5 (Joules/Mol)
                                  143.01088 (Kcal/Mol)
 Warning -- explicit consideration of  19 degrees of freedom as
           vibrations may cause significant error
 Vibrational temperatures:     43.72    63.89    90.31   132.63   151.28
          (Kelvin)            174.70   216.35   301.66   355.71   380.19
                              441.88   456.15   504.17   564.82   573.39
                              655.36   719.19   791.07   849.29  1052.45
                             1082.61  1152.18  1251.94  1307.84  1343.59
                             1377.56  1422.11  1478.90  1499.58  1517.76
                             1571.66  1623.89  1636.55  1658.76  1717.84
                             1720.97  1742.87  1799.20  1834.53  1866.59
                             1889.21  1898.27  1930.45  1962.51  2026.37
                             2032.34  2071.71  2114.14  2135.28  2145.71
                             2152.69  2162.73  2172.39  2186.12  2207.09
                             2430.46  3400.21  4192.98  4211.02  4220.98
                             4321.13  4365.33  4376.92  4412.00  4416.17
                             4418.63  4461.04  4505.21  4892.63  4917.73
                             5086.36  5090.76

 Zero-point correction=                           0.227902 (Hartree/Particle)
 Thermal correction to Energy=                    0.241105
 Thermal correction to Enthalpy=                  0.242049
 Thermal correction to Gibbs Free Energy=         0.186727
 Sum of electronic and zero-point Energies=           -511.140098
 Sum of electronic and thermal Energies=              -511.126895
 Sum of electronic and thermal Enthalpies=            -511.125951
 Sum of electronic and thermal Free Energies=         -511.181273

                     E (Thermal)             CV                S
                      KCal/Mol        Cal/Mol-Kelvin    Cal/Mol-Kelvin
 Total                  151.296             46.639            116.436
 Electronic               0.000              0.000              0.000
 Translational            0.889              2.981             41.065
 Rotational               0.889              2.981             31.456
 Vibrational            149.518             40.678             43.915
 Vibration     1          0.594              1.984              5.804
 Vibration     2          0.595              1.980              5.052
 Vibration     3          0.597              1.972              4.368
 Vibration     4          0.602              1.955              3.613
 Vibration     5          0.605              1.945              3.357
 Vibration     6          0.609              1.931              3.078
 Vibration     7          0.618              1.902              2.668
 Vibration     8          0.642              1.826              2.047
 Vibration     9          0.661              1.767              1.750
 Vibration    10          0.671              1.738              1.634
 Vibration    11          0.697              1.660              1.378
 Vibration    12          0.704              1.641              1.325
 Vibration    13          0.727              1.574              1.164
 Vibration    14          0.760              1.486              0.990
 Vibration    15          0.765              1.473              0.968
 Vibration    16          0.814              1.349              0.779
 Vibration    17          0.855              1.250              0.658
 Vibration    18          0.905              1.140              0.545
 Vibration    19          0.948              1.052              0.467

                           ! Non-Optimized Parameters !
 Normal termination of Gaussian 16 at Tue Jun  1 18:11:22 2021.
