 Gaussian 16, Revision A.03,
 Gaussian 16:  ES64L-G16RevA.03 25-Dec-2016

 -----------------------------
 # opt freq b3lyp/6-31g(2df,p)
 -----------------------------

 -------------------
 Title Card Required
 -------------------
 Symbolic Z-matrix:
 Charge =  0 Multiplicity = 1

 SCF Done:  E(RB3LYP) =  -378.607570428     A.U. after   13 cycles
 SCF Done:  E(RB3LYP) =  -378.616012926     A.U. after   12 cycles
 SCF Done:  E(RB3LYP) =  -378.616390728     A.U. after   10 cycles
 SCF Done:  E(RB3LYP) =  -378.616620059     A.U. after   10 cycles
 SCF Done:  E(RB3LYP) =  -378.616822460     A.U. after   10 cycles
 SCF Done:  E(RB3LYP) =  -378.612169716     A.U. after   12 cycles
 SCF Done:  E(RB3LYP) =  -378.617998885     A.U. after   11 cycles
 SCF Done:  E(RB3LYP) =  -378.465324410     A.U. after   14 cycles
 SCF Done:  E(RB3LYP) =  -378.617883048     A.U. after   12 cycles
 SCF Done:  E(RB3LYP) =  -378.619414665     A.U. after   10 cycles
 SCF Done:  E(RB3LYP) =  -378.625741506     A.U. after   12 cycles
 SCF Done:  E(RB3LYP) =  -378.626256299     A.U. after   10 cycles
 SCF Done:  E(RB3LYP) =  -378.626470419     A.U. after   10 cycles
 SCF Done:  E(RB3LYP) =  -378.626517890     A.U. after   10 cycles
 SCF Done:  E(RB3LYP) =  -378.626533858     A.U. after    9 cycles
 SCF Done:  E(RB3LYP) =  -378.626542277     A.U. after    9 cycles
 SCF Done:  E(RB3LYP) =  -378.626544223     A.U. after    7 cycles
 SCF Done:  E(RB3LYP) =  -378.626544723     A.U. after    7 cycles
 SCF Done:  E(RB3LYP) =  -378.626544900     A.U. after    6 cycles
 Optimization completed.
    -- Stationary point found.
 Normal termination of Gaussian 16 at Tue Jun  1 14:54:45 2021.

 ----------------------------------------------------------------------
 #N Geom=AllCheck Guess=TCheck SCRF=Check GenChk RB3LYP/6-31G(2df,p) Fr
 eq
 ----------------------------------------------------------------------

 Structure from the checkpoint file:  "CNpCCNpNdCN.chk"
 -------------------
 Title Card Required
 -------------------
 Charge =  0 Multiplicity = 1

                         Standard orientation:
 ---------------------------------------------------------------------
 Center     Atomic      Atomic             Coordinates (Angstroms)
 Number     Number       Type             X           Y           Z
 ---------------------------------------------------------------------
      1          6           0        0.190471    2.050984   -0.179800
      2          7           0       -0.112672    0.714275    0.311120
      3          6           0        0.791191   -0.338861   -0.127363
      4          6           0        2.266713   -0.015871    0.122322
      5          7           0        3.066446   -1.217842   -0.133825
      6          7           0       -1.476227    0.485361    0.175786
      7          6           0       -1.943514   -0.682530   -0.035800
      8          7           0       -3.318573   -0.914263    0.035566
      9          1           0        1.160857    2.382226    0.197536
     10          1           0       -0.581340    2.725743    0.192906
     11          1           0        0.200503    2.113735   -1.282469
     12          1           0        0.647585   -0.593445   -1.194026
     13          1           0        0.552653   -1.243779    0.446863
     14          1           0        2.371146    0.393200    1.141132
     15          1           0        2.607670    0.758714   -0.572213
     16          1           0        2.909882   -1.898068    0.604904
     17          1           0        4.054466   -0.988061   -0.097359
     18          1           0       -1.356399   -1.585459   -0.204172
     19          1           0       -3.849190   -0.051416    0.026505
     20          1           0       -3.659824   -1.568440   -0.656285
 ---------------------------------------------------------------------

 SCF Done:  E(RB3LYP) =  -378.626544900     A.U. after    1 cycles

 The electronic state is 1-A.
 Alpha  occ. eigenvalues --  -14.34533 -14.32708 -14.32177 -14.30970 -10.22687
 Alpha  occ. eigenvalues --  -10.20629 -10.20187 -10.19279  -0.98097  -0.90315
 Alpha  occ. eigenvalues --   -0.87891  -0.80114  -0.72545  -0.65703  -0.61133
 Alpha  occ. eigenvalues --   -0.55945  -0.52906  -0.49636  -0.48395  -0.46061
 Alpha  occ. eigenvalues --   -0.43707  -0.42733  -0.41465  -0.40676  -0.37134
 Alpha  occ. eigenvalues --   -0.36985  -0.34679  -0.34103  -0.27809  -0.25368
 Alpha  occ. eigenvalues --   -0.23797  -0.17872
 Alpha virt. eigenvalues --    0.04470   0.07999   0.09258   0.11096   0.11392
 Alpha virt. eigenvalues --    0.13688   0.14746   0.16167   0.16643   0.17244
 Alpha virt. eigenvalues --    0.17833   0.19152   0.20443   0.20911   0.22566

 Mulliken charges:
               1
     1  C   -0.295727
     2  N   -0.036417
     3  C   -0.085218
     4  C   -0.189324
     5  N   -0.511137
     6  N   -0.198121
     7  C    0.061382
     8  N   -0.517376
     9  H    0.116409
    10  H    0.133701
    11  H    0.093987
    12  H    0.089912
    13  H    0.100459
    14  H    0.094464
    15  H    0.109459
    16  H    0.225341
    17  H    0.228137
    18  H    0.092120
    19  H    0.245785
    20  H    0.242163
 Sum of Mulliken charges =  -0.00000

 Dipole moment (field-independent basis, Debye):
    X=              0.6990    Y=             -0.6879    Z=             -0.6256  Tot=              1.1633
 Quadrupole moment (field-independent basis, Debye-Ang):
   XX=            -40.3542   YY=            -47.8304   ZZ=            -52.1757
   XY=              2.7461   XZ=              7.6513   YZ=             -1.1505

  Exact polarizability: 102.641   9.547  79.721   0.613   1.192  53.217
 Approx polarizability: 127.326  19.066 120.013   1.045   4.631  83.118

                      1                      2                      3
                      A                      A                      A
 Frequencies --     98.7783               117.7957               132.6976
 Red. masses --      2.2024                 2.1091                 3.5417
 Frc consts  --      0.0127                 0.0172                 0.0367
 IR Inten    --      4.1844                 5.0325                 3.2554

                      4                      5                      6
                      A                      A                      A
 Frequencies --    158.8056               200.9537               248.7218
 Red. masses --      2.5019                 1.8723                 1.3925
 Frc consts  --      0.0372                 0.0445                 0.0508
 IR Inten    --      8.2421                 4.4254                18.1270

                      7                      8                      9
                      A                      A                      A
 Frequencies --    264.3673               276.6564               355.3014
 Red. masses --      1.1804                 1.9328                 2.5045
 Frc consts  --      0.0486                 0.0872                 0.1863
 IR Inten    --     19.8727                14.6648                 8.7345

                     10                     11                     12
                      A                      A                      A
 Frequencies --    375.4532               407.6843               416.0278
 Red. masses --      2.9009                 1.5881                 3.7950
 Frc consts  --      0.2409                 0.1555                 0.3870
 IR Inten    --     21.9294                32.7924                33.8479

                     13                     14                     15
                      A                      A                      A
 Frequencies --    525.5969               629.8024               728.3304
 Red. masses --      3.1690                 4.0982                 1.4208
 Frc consts  --      0.5158                 0.9578                 0.4441
 IR Inten    --      6.6255                 8.8327               329.6486

                     16                     17                     18
                      A                      A                      A
 Frequencies --    820.1159               846.5466               880.7700
 Red. masses --      1.1446                 2.5500                 1.4962
 Frc consts  --      0.4536                 1.0767                 0.6839
 IR Inten    --     14.7368                86.3449                46.0413

                     19                     20                     21
                      A                      A                      A
 Frequencies --    924.6352               993.3413              1022.1383
 Red. masses --      1.4319                 2.2150                 1.9619
 Frc consts  --      0.7213                 1.2877                 1.2077
 IR Inten    --     24.3503                30.6981                13.8754

                     22                     23                     24
                      A                      A                      A
 Frequencies --   1073.8966              1120.8637              1123.3451
 Red. masses --      2.6134                 1.7330                 1.6340
 Frc consts  --      1.7758                 1.2828                 1.2148
 IR Inten    --     14.7580                13.1377                15.3248

                     25                     26                     27
                      A                      A                      A
 Frequencies --   1152.9946              1156.6742              1245.6627
 Red. masses --      1.4618                 1.6847                 2.5463
 Frc consts  --      1.1450                 1.3280                 2.3279
 IR Inten    --      9.2496                58.7053                35.0639

                     28                     29                     30
                      A                      A                      A
 Frequencies --   1258.1434              1293.1463              1299.2421
 Red. masses --      1.9127                 1.3958                 2.2578
 Frc consts  --      1.7838                 1.3752                 2.2455
 IR Inten    --     28.2216                 5.5053                13.6322

                     31                     32                     33
                      A                      A                      A
 Frequencies --   1334.2357              1386.7311              1400.5815
 Red. masses --      1.1541                 1.3422                 1.4751
 Frc consts  --      1.2104                 1.5208                 1.7049
 IR Inten    --      1.5786                11.9359                 4.3168

                     34                     35                     36
                      A                      A                      A
 Frequencies --   1435.7969              1449.0331              1485.3319
 Red. masses --      1.4519                 1.1752                 1.0579
 Frc consts  --      1.7634                 1.4538                 1.3752
 IR Inten    --      1.8625                 1.3598                12.1578

                     37                     38                     39
                      A                      A                      A
 Frequencies --   1504.4496              1506.5068              1521.0971
 Red. masses --      1.0720                 1.0559                 1.0882
 Frc consts  --      1.4296                 1.4119                 1.4834
 IR Inten    --      4.1602                 8.1277                 2.7233

                     40                     41                     42
                      A                      A                      A
 Frequencies --   1626.8429              1661.5282              1727.1204
 Red. masses --      1.1652                 1.0891                 5.7954
 Frc consts  --      1.8169                 1.7715                10.1853
 IR Inten    --     35.3679                21.2629                76.6533

                     43                     44                     45
                      A                      A                      A
 Frequencies --   2932.0057              2948.3575              2962.6496
 Red. masses --      1.0697                 1.0603                 1.0707
 Frc consts  --      5.4179                 5.4303                 5.5369
 IR Inten    --     22.2764                94.1274                81.6243

                     46                     47                     48
                      A                      A                      A
 Frequencies --   3022.2343              3070.3947              3089.0053
 Red. masses --      1.0870                 1.0909                 1.0735
 Frc consts  --      5.8500                 6.0595                 6.0349
 IR Inten    --     16.8813                38.1905                35.6207

                     49                     50                     51
                      A                      A                      A
 Frequencies --   3117.6470              3141.7010              3489.5748
 Red. masses --      1.0866                 1.1014                 1.0500
 Frc consts  --      6.2226                 6.4053                 7.5329
 IR Inten    --     30.2588                17.0078                 0.4760

                     52                     53                     54
                      A                      A                      A
 Frequencies --   3528.9962              3568.5469              3635.3497
 Red. masses --      1.0467                 1.0917                 1.0970
 Frc consts  --      7.6800                 8.1907                 8.5418
 IR Inten    --      7.8798                 0.0906                10.2515

 - Thermochemistry -
 -------------------
 Temperature   298.150 Kelvin.  Pressure   1.00000 Atm.
 Atom     1 has atomic number  6 and mass  12.00000

 Molecular mass:   116.10620 amu.
 Principal axes and moments of inertia in atomic units:
                           1         2         3
     Eigenvalues --   496.348181822.512542257.18101
           X            0.99995   0.00554   0.00888
           Y           -0.00545   0.99993  -0.01007
           Z           -0.00893   0.01003   0.99991
 This molecule is an asymmetric top.
 Rotational symmetry number  1.
 Warning -- assumption of classical behavior for rotation
           may cause significant error
 Rotational temperatures (Kelvin)      0.17450     0.04752     0.03837
 Rotational constants (GHZ):           3.63604     0.99025     0.79956
 Zero-point vibrational energy     464714.6 (Joules/Mol)
                                  111.06944 (Kcal/Mol)
 Warning -- explicit consideration of  13 degrees of freedom as
           vibrations may cause significant error
 Vibrational temperatures:    142.12   169.48   190.92   228.49   289.13
          (Kelvin)            357.86   380.37   398.05   511.20   540.19
                              586.57   598.57   756.22   906.15  1047.91
                             1179.96  1217.99  1267.23  1330.34  1429.20
                             1470.63  1545.10  1612.67  1616.24  1658.90
                             1664.20  1792.23  1810.19  1860.55  1869.32
                             1919.67  1995.20  2015.12  2065.79  2084.84
                             2137.06  2164.57  2167.53  2188.52  2340.66
                             2390.57  2484.94  4218.50  4242.03  4262.59
                             4348.32  4417.61  4444.39  4485.60  4520.21
                             5020.72  5077.44  5134.34  5230.46

 Zero-point correction=                           0.177000 (Hartree/Particle)
 Thermal correction to Energy=                    0.186820
 Thermal correction to Enthalpy=                  0.187764
 Thermal correction to Gibbs Free Energy=         0.142580
 Sum of electronic and zero-point Energies=           -378.449544
 Sum of electronic and thermal Energies=              -378.439725
 Sum of electronic and thermal Enthalpies=            -378.438781
 Sum of electronic and thermal Free Energies=         -378.483964

                     E (Thermal)             CV                S
                      KCal/Mol        Cal/Mol-Kelvin    Cal/Mol-Kelvin
 Total                  117.231             35.457             95.097
 Electronic               0.000              0.000              0.000
 Translational            0.889              2.981             40.163
 Rotational               0.889              2.981             29.103
 Vibrational            115.454             29.495             25.831
 Vibration     1          0.604              1.950              3.478
 Vibration     2          0.608              1.935              3.136
 Vibration     3          0.613              1.921              2.907
 Vibration     4          0.621              1.893              2.564
 Vibration     5          0.638              1.839              2.124
 Vibration     6          0.662              1.765              1.740
 Vibration     7          0.671              1.738              1.633
 Vibration     8          0.678              1.717              1.554
 Vibration     9          0.731              1.564              1.143
 Vibration    10          0.746              1.522              1.057
 Vibration    11          0.772              1.454              0.935
 Vibration    12          0.779              1.435              0.906
 Vibration    13          0.881              1.193              0.597

                           ! Non-Optimized Parameters !
 Normal termination of Gaussian 16 at Tue Jun  1 15:18:27 2021.
