 Gaussian 16, Revision A.03,
 Gaussian 16:  ES64L-G16RevA.03 25-Dec-2016

 -----------------------------
 # opt freq b3lyp/6-31g(2df,p)
 -----------------------------

 -------------------
 Title Card Required
 -------------------
 Symbolic Z-matrix:
 Charge =  0 Multiplicity = 1

 SCF Done:  E(RB3LYP) =  -494.161111902     A.U. after   14 cycles
 SCF Done:  E(RB3LYP) =  -494.168030160     A.U. after   12 cycles
 SCF Done:  E(RB3LYP) =  -494.169093787     A.U. after   12 cycles
 SCF Done:  E(RB3LYP) =  -494.169818015     A.U. after   12 cycles
 SCF Done:  E(RB3LYP) =  -494.170892071     A.U. after   14 cycles
 SCF Done:  E(RB3LYP) =  -494.171457683     A.U. after   11 cycles
 SCF Done:  E(RB3LYP) =  -494.172060777     A.U. after   11 cycles
 SCF Done:  E(RB3LYP) =  -494.172677320     A.U. after   12 cycles
 SCF Done:  E(RB3LYP) =  -494.173184564     A.U. after   12 cycles
 SCF Done:  E(RB3LYP) =  -494.173617493     A.U. after   11 cycles
 SCF Done:  E(RB3LYP) =  -494.174665001     A.U. after   11 cycles
 SCF Done:  E(RB3LYP) =  -494.174691267     A.U. after    9 cycles
 SCF Done:  E(RB3LYP) =  -494.174715608     A.U. after    9 cycles
 SCF Done:  E(RB3LYP) =  -494.174727404     A.U. after   10 cycles
 SCF Done:  E(RB3LYP) =  -494.174736995     A.U. after    9 cycles
 SCF Done:  E(RB3LYP) =  -494.174756989     A.U. after   10 cycles
 SCF Done:  E(RB3LYP) =  -494.174774153     A.U. after   10 cycles
 SCF Done:  E(RB3LYP) =  -494.174781178     A.U. after   10 cycles
 SCF Done:  E(RB3LYP) =  -494.174781312     A.U. after    7 cycles
 Optimization completed.
    -- Stationary point found.
 Normal termination of Gaussian 16 at Tue Jun  1 01:05:55 2021.

 ----------------------------------------------------------------------
 #N Geom=AllCheck Guess=TCheck SCRF=Check GenChk RB3LYP/6-31G(2df,p) Fr
 eq
 ----------------------------------------------------------------------

 Structure from the checkpoint file:  "CNpCdNpCNCCCCtN.chk"
 -------------------
 Title Card Required
 -------------------
 Charge =  0 Multiplicity = 1

                         Standard orientation:
 ---------------------------------------------------------------------
 Center     Atomic      Atomic             Coordinates (Angstroms)
 Number     Number       Type             X           Y           Z
 ---------------------------------------------------------------------
      1          6           0       -3.235037   -0.901719    1.147110
      2          7           0       -2.726192   -0.319456   -0.079633
      3          6           0       -3.233324    0.886831   -0.517295
      4          7           0       -4.179245    1.592500   -0.036541
      5          6           0       -1.474541   -0.788549   -0.618425
      6          7           0       -0.313714   -0.151987    0.005263
      7          6           0        0.956493   -0.606510   -0.545611
      8          6           0        2.125873    0.109678    0.130107
      9          6           0        3.479824   -0.316992   -0.468790
     10          6           0        4.612935    0.328331    0.190057
     11          7           0        5.498811    0.843974    0.723380
     12          1           0       -2.984524   -0.309157    2.039353
     13          1           0       -2.820062   -1.905014    1.268057
     14          1           0       -4.325873   -0.992513    1.100770
     15          1           0       -2.736800    1.235147   -1.425856
     16          1           0       -4.557351    1.194098    0.824044
     17          1           0       -1.439263   -0.550849   -1.688633
     18          1           0       -1.457255   -1.889644   -0.532904
     19          1           0       -0.332722   -0.328577    1.006241
     20          1           0        0.957131   -0.376195   -1.620108
     21          1           0        1.099356   -1.702500   -0.466450
     22          1           0        2.126263   -0.109435    1.204459
     23          1           0        1.996475    1.190913    0.027750
     24          1           0        3.516063   -0.074721   -1.537493
     25          1           0        3.607608   -1.403198   -0.389433
 ---------------------------------------------------------------------

 SCF Done:  E(RB3LYP) =  -494.174781312     A.U. after    1 cycles

 The electronic state is 1-A.
 Alpha  occ. eigenvalues --  -14.35958 -14.33431 -14.32876 -14.28769 -10.25771
 Alpha  occ. eigenvalues --  -10.24312 -10.24264 -10.23174 -10.23021 -10.22241
 Alpha  occ. eigenvalues --  -10.21462  -0.97734  -0.91791  -0.90313  -0.85918
 Alpha  occ. eigenvalues --   -0.81903  -0.74265  -0.71574  -0.66639  -0.62709
 Alpha  occ. eigenvalues --   -0.58111  -0.53814  -0.52365  -0.50844  -0.49470
 Alpha  occ. eigenvalues --   -0.48822  -0.46975  -0.44620  -0.42540  -0.42183
 Alpha  occ. eigenvalues --   -0.41124  -0.40261  -0.39134  -0.38047  -0.36741
 Alpha  occ. eigenvalues --   -0.35617  -0.33979  -0.32538  -0.32480  -0.25899
 Alpha  occ. eigenvalues --   -0.24691  -0.22979
 Alpha virt. eigenvalues --    0.03026   0.03678   0.03773   0.05901   0.07457
 Alpha virt. eigenvalues --    0.08784   0.09626   0.10488   0.11873   0.12426
 Alpha virt. eigenvalues --    0.13350   0.14997   0.15488   0.16098   0.17021

 Mulliken charges:
               1
     1  C   -0.358992
     2  N   -0.028263
     3  C    0.127192
     4  N   -0.500585
     5  C   -0.133296
     6  N   -0.296241
     7  C   -0.127644
     8  C   -0.195521
     9  C   -0.340077
    10  C    0.258309
    11  N   -0.300820
    12  H    0.128542
    13  H    0.128711
    14  H    0.142193
    15  H    0.106019
    16  H    0.205541
    17  H    0.120831
    18  H    0.090279
    19  H    0.216502
    20  H    0.110390
    21  H    0.081199
    22  H    0.118715
    23  H    0.139110
    24  H    0.155231
    25  H    0.152673
 Sum of Mulliken charges =  -0.00000

 Dipole moment (field-independent basis, Debye):
    X=             -1.3068    Y=             -5.0437    Z=             -0.5282  Tot=              5.2369
 Quadrupole moment (field-independent basis, Debye-Ang):
   XX=           -105.3671   YY=            -72.7039   ZZ=            -63.0946
   XY=              2.8555   XZ=            -13.8495   YZ=             -1.6530

  Exact polarizability: 132.941  -4.025  89.796  -1.813   0.637  86.419
 Approx polarizability: 161.649  -6.270 140.952   1.023   5.010 133.854

                      1                      2                      3
                      A                      A                      A
 Frequencies --     30.3599                46.2111                51.8622
 Red. masses --      5.3165                 2.6475                 3.6483
 Frc consts  --      0.0029                 0.0033                 0.0058
 IR Inten    --      4.4113                 2.6438                 0.9825

                      4                      5                      6
                      A                      A                      A
 Frequencies --     77.1566               100.1058               130.2776
 Red. masses --      2.8780                 3.8973                 2.2864
 Frc consts  --      0.0101                 0.0230                 0.0229
 IR Inten    --      1.0734                 4.1747                 2.4334

                      7                      8                      9
                      A                      A                      A
 Frequencies --    142.9218               164.7125               188.2975
 Red. masses --      2.3551                 1.2870                 4.3183
 Frc consts  --      0.0283                 0.0206                 0.0902
 IR Inten    --      1.3156                 0.1341                 2.4890

                     10                     11                     12
                      A                      A                      A
 Frequencies --    236.8088               300.7739               323.7279
 Red. masses --      2.4148                 2.4697                 3.3558
 Frc consts  --      0.0798                 0.1316                 0.2072
 IR Inten    --      1.2778                 2.2152                 4.3185

                     13                     14                     15
                      A                      A                      A
 Frequencies --    366.4935               397.6766               431.7022
 Red. masses --      4.3138                 3.4816                 2.1721
 Frc consts  --      0.3414                 0.3244                 0.2385
 IR Inten    --      0.2089                 0.6256                 2.2083

                     16                     17                     18
                      A                      A                      A
 Frequencies --    495.1217               562.2686               674.6297
 Red. masses --      4.6891                 5.0868                 2.9668
 Frc consts  --      0.6773                 0.9475                 0.7955
 IR Inten    --      4.2132                 1.2446                 1.0975

                     19                     20                     21
                      A                      A                      A
 Frequencies --    752.5916               781.9376               828.8545
 Red. masses --      1.1178                 1.2194                 1.9844
 Frc consts  --      0.3730                 0.4393                 0.8032
 IR Inten    --      1.8689                71.7001                49.0088

                     22                     23                     24
                      A                      A                      A
 Frequencies --    854.1857               867.1269               941.7130
 Red. masses --      2.9524                 1.3878                 4.6250
 Frc consts  --      1.2692                 0.6148                 2.4166
 IR Inten    --      0.9810                 3.3756                 1.2405

                     25                     26                     27
                      A                      A                      A
 Frequencies --   1006.2499              1024.7233              1046.5906
 Red. masses --      3.1033                 2.0570                 2.6256
 Frc consts  --      1.8513                 1.2726                 1.6945
 IR Inten    --      9.5407                 5.1749                 9.0661

                     28                     29                     30
                      A                      A                      A
 Frequencies --   1069.3775              1081.4222              1096.2576
 Red. masses --      1.1383                 1.7631                 2.4804
 Frc consts  --      0.7670                 1.2148                 1.7563
 IR Inten    --     27.1722                65.4485                 8.6124

                     31                     32                     33
                      A                      A                      A
 Frequencies --   1127.6622              1132.1113              1149.2373
 Red. masses --      3.1436                 2.0132                 1.3755
 Frc consts  --      2.3552                 1.5203                 1.0703
 IR Inten    --     95.6953                12.3251                14.3954

                     34                     35                     36
                      A                      A                      A
 Frequencies --   1175.5158              1210.0133              1262.1568
 Red. masses --      1.3562                 1.3302                 1.3030
 Frc consts  --      1.1042                 1.1475                 1.2230
 IR Inten    --     28.9734               146.2111                43.7539

                     37                     38                     39
                      A                      A                      A
 Frequencies --   1282.4897              1309.6016              1317.1458
 Red. masses --      1.3582                 1.3682                 2.2794
 Frc consts  --      1.3162                 1.3826                 2.3299
 IR Inten    --     34.0520                11.5966                11.3915

                     40                     41                     42
                      A                      A                      A
 Frequencies --   1323.0755              1357.9608              1392.6854
 Red. masses --      1.0946                 1.3247                 1.3811
 Frc consts  --      1.1289                 1.4393                 1.5782
 IR Inten    --      6.3801                18.3847                25.7338

                     43                     44                     45
                      A                      A                      A
 Frequencies --   1404.9470              1432.7942              1443.2982
 Red. masses --      2.1883                 1.3660                 1.2102
 Frc consts  --      2.5449                 1.6523                 1.4853
 IR Inten    --     95.8886                 8.8592                 3.5758

                     46                     47                     48
                      A                      A                      A
 Frequencies --   1460.1817              1469.7480              1483.2224
 Red. masses --      1.2145                 1.0827                 1.0666
 Frc consts  --      1.5257                 1.3780                 1.3824
 IR Inten    --     11.4229                 2.1239                21.1609

                     49                     50                     51
                      A                      A                      A
 Frequencies --   1489.6847              1495.7311              1507.8107
 Red. masses --      1.1754                 1.0858                 1.1240
 Frc consts  --      1.5368                 1.4312                 1.5056
 IR Inten    --     52.4218                 1.9714                 0.5742

                     52                     53                     54
                      A                      A                      A
 Frequencies --   1520.4538              1525.3704              1709.4356
 Red. masses --      1.0821                 1.0789                 6.9110
 Frc consts  --      1.4738                 1.4791                11.8985
 IR Inten    --      3.4427                 8.1463               296.5198

                     55                     56                     57
                      A                      A                      A
 Frequencies --   2364.5095              2904.7327              2940.6965
 Red. masses --     12.6101                 1.0727                 1.0714
 Frc consts  --     41.5385                 5.3325                 5.4589
 IR Inten    --     11.7040                70.0718                81.5645

                     58                     59                     60
                      A                      A                      A
 Frequencies --   2994.6570              3021.4935              3035.5220
 Red. masses --      1.0479                 1.0840                 1.0592
 Frc consts  --      5.5370                 5.8307                 5.7503
 IR Inten    --     39.4981                12.7219                 1.7766

                     61                     62                     63
                      A                      A                      A
 Frequencies --   3044.3940              3046.8740              3062.1544
 Red. masses --      1.0889                 1.0651                 1.0896
 Frc consts  --      5.9464                 5.8258                 6.0199
 IR Inten    --     17.8236                34.3649                27.1762

                     64                     65                     66
                      A                      A                      A
 Frequencies --   3071.6810              3103.4611              3109.1984
 Red. masses --      1.0989                 1.1017                 1.0881
 Frc consts  --      6.1089                 6.2516                 6.1973
 IR Inten    --      1.7139                18.8524                26.4566

                     67                     68                     69
                      A                      A                      A
 Frequencies --   3118.6023              3469.2559              3498.9124
 Red. masses --      1.0989                 1.0730                 1.0735
 Frc consts  --      6.2971                 7.6090                 7.7434
 IR Inten    --     14.6407                 4.4185                 0.2033

 - Thermochemistry -
 -------------------
 Temperature   298.150 Kelvin.  Pressure   1.00000 Atm.
 Atom     1 has atomic number  6 and mass  12.00000

 Molecular mass:   154.12185 amu.
 Principal axes and moments of inertia in atomic units:
                           1         2         3
     Eigenvalues --   562.216295998.302416143.12273
           X            0.99994  -0.00018  -0.01122
           Y           -0.00018   0.99946  -0.03282
           Z            0.01122   0.03282   0.99940
 This molecule is an asymmetric top.
 Rotational symmetry number  1.
 Warning -- assumption of classical behavior for rotation
           may cause significant error
 Rotational temperatures (Kelvin)      0.15406     0.01444     0.01410
 Rotational constants (GHZ):           3.21005     0.30088     0.29378
 Zero-point vibrational energy     567272.9 (Joules/Mol)
                                  135.58147 (Kcal/Mol)
 Warning -- explicit consideration of  17 degrees of freedom as
           vibrations may cause significant error
 Vibrational temperatures:     43.68    66.49    74.62   111.01   144.03
          (Kelvin)            187.44   205.63   236.98   270.92   340.72
                              432.75   465.77   527.30   572.17   621.12
                              712.37   808.98   970.64  1082.81  1125.03
                             1192.54  1228.98  1247.60  1354.91  1447.77
                             1474.35  1505.81  1538.60  1555.93  1577.27
                             1622.45  1628.86  1653.50  1691.30  1740.94
                             1815.96  1845.22  1884.22  1895.08  1903.61
                             1953.80  2003.76  2021.41  2061.47  2076.58
                             2100.88  2114.64  2134.03  2143.32  2152.02
                             2169.40  2187.59  2194.67  2459.50  3402.00
                             4179.26  4231.01  4308.64  4347.26  4367.44
                             4380.20  4383.77  4405.76  4419.46  4465.19
                             4473.44  4486.97  4991.49  5034.15

 Zero-point correction=                           0.216063 (Hartree/Particle)
 Thermal correction to Energy=                    0.229109
 Thermal correction to Enthalpy=                  0.230053
 Thermal correction to Gibbs Free Energy=         0.174508
 Sum of electronic and zero-point Energies=           -493.958718
 Sum of electronic and thermal Energies=              -493.945672
 Sum of electronic and thermal Enthalpies=            -493.944728
 Sum of electronic and thermal Free Energies=         -494.000273

                     E (Thermal)             CV                S
                      KCal/Mol        Cal/Mol-Kelvin    Cal/Mol-Kelvin
 Total                  143.768             44.746            116.905
 Electronic               0.000              0.000              0.000
 Translational            0.889              2.981             41.007
 Rotational               0.889              2.981             31.405
 Vibrational            141.991             38.785             44.492
 Vibration     1          0.594              1.984              5.806
 Vibration     2          0.595              1.979              4.973
 Vibration     3          0.596              1.977              4.745
 Vibration     4          0.599              1.964              3.962
 Vibration     5          0.604              1.949              3.452
 Vibration     6          0.612              1.923              2.942
 Vibration     7          0.616              1.910              2.764
 Vibration     8          0.623              1.886              2.495
 Vibration     9          0.633              1.856              2.245
 Vibration    10          0.656              1.784              1.827
 Vibration    11          0.693              1.672              1.413
 Vibration    12          0.708              1.628              1.291
 Vibration    13          0.739              1.541              1.094
 Vibration    14          0.764              1.475              0.971
 Vibration    15          0.793              1.401              0.853
 Vibration    16          0.851              1.261              0.670
 Vibration    17          0.918              1.113              0.519

                           ! Non-Optimized Parameters !
 Normal termination of Gaussian 16 at Tue Jun  1 01:53:15 2021.
