 Gaussian 16, Revision A.03,
 Gaussian 16:  ES64L-G16RevA.03 25-Dec-2016

 -----------------------------
 # opt freq b3lyp/6-31g(2df,p)
 -----------------------------

 -------------------
 Title Card Required
 -------------------
 Symbolic Z-matrix:
 Charge =  0 Multiplicity = 1

 SCF Done:  E(RB3LYP) =  -417.919829161     A.U. after   13 cycles
 SCF Done:  E(RB3LYP) =  -417.929409090     A.U. after   11 cycles
 SCF Done:  E(RB3LYP) =  -417.931333464     A.U. after   12 cycles
 SCF Done:  E(RB3LYP) =  -417.933035815     A.U. after   11 cycles
 SCF Done:  E(RB3LYP) =  -417.936279181     A.U. after   12 cycles
 SCF Done:  E(RB3LYP) =  -417.938874512     A.U. after   12 cycles
 SCF Done:  E(RB3LYP) =  -417.940583210     A.U. after   11 cycles
 SCF Done:  E(RB3LYP) =  -417.941953183     A.U. after   11 cycles
 SCF Done:  E(RB3LYP) =  -417.943132302     A.U. after   11 cycles
 SCF Done:  E(RB3LYP) =  -417.945157307     A.U. after   12 cycles
 SCF Done:  E(RB3LYP) =  -417.948370918     A.U. after   10 cycles
 SCF Done:  E(RB3LYP) =  -417.948533777     A.U. after   11 cycles
 SCF Done:  E(RB3LYP) =  -417.948585499     A.U. after   10 cycles
 SCF Done:  E(RB3LYP) =  -417.948599296     A.U. after    9 cycles
 SCF Done:  E(RB3LYP) =  -417.948602426     A.U. after    8 cycles
 SCF Done:  E(RB3LYP) =  -417.948603588     A.U. after    7 cycles
 SCF Done:  E(RB3LYP) =  -417.948604231     A.U. after    7 cycles
 SCF Done:  E(RB3LYP) =  -417.948604411     A.U. after    7 cycles
 SCF Done:  E(RB3LYP) =  -417.948604494     A.U. after    7 cycles
 Optimization completed.
    -- Stationary point found.
 Normal termination of Gaussian 16 at Tue Jun  1 20:07:15 2021.

 ----------------------------------------------------------------------
 #N Geom=AllCheck Guess=TCheck SCRF=Check GenChk RB3LYP/6-31G(2df,p) Fr
 eq
 ----------------------------------------------------------------------

 Structure from the checkpoint file:  "CNpCdCNpCNCN.chk"
 -------------------
 Title Card Required
 -------------------
 Charge =  0 Multiplicity = 1

                         Standard orientation:
 ---------------------------------------------------------------------
 Center     Atomic      Atomic             Coordinates (Angstroms)
 Number     Number       Type             X           Y           Z
 ---------------------------------------------------------------------
      1          6           0       -1.460691    2.073463   -0.141375
      2          7           0       -0.645430    0.884814   -0.260754
      3          6           0       -1.298629   -0.347257   -0.079376
      4          6           0       -2.616492   -0.549174    0.048604
      5          7           0       -3.239110   -1.821542    0.006925
      6          6           0        0.674567    0.977444    0.346324
      7          7           0        1.563145   -0.005225   -0.243003
      8          6           0        2.871019   -0.096724    0.376472
      9          7           0        3.630037   -1.121099   -0.328333
     10          1           0       -2.275296    2.033856   -0.872215
     11          1           0       -0.853585    2.957689   -0.353376
     12          1           0       -1.914399    2.196501    0.858921
     13          1           0       -0.612928   -1.188537   -0.113326
     14          1           0       -3.322594    0.272855    0.090255
     15          1           0       -2.563882   -2.575138    0.076345
     16          1           0       -3.921319   -1.935395    0.748927
     17          1           0        0.655173    0.793165    1.436876
     18          1           0        1.018998    2.017013    0.205054
     19          1           0        1.669931    0.172704   -1.237086
     20          1           0        2.708550   -0.296735    1.450768
     21          1           0        3.455980    0.840861    0.316371
     22          1           0        3.199156   -2.026991   -0.168647
     23          1           0        4.577076   -1.166984    0.033384
 ---------------------------------------------------------------------

 SCF Done:  E(RB3LYP) =  -417.948604494     A.U. after    1 cycles

 The electronic state is 1-A.
 Alpha  occ. eigenvalues --  -14.32498 -14.31257 -14.30943 -14.30825 -10.22946
 Alpha  occ. eigenvalues --  -10.22943 -10.19903 -10.18199 -10.17620  -0.94247
 Alpha  occ. eigenvalues --   -0.90514  -0.87832  -0.84313  -0.71524  -0.69575
 Alpha  occ. eigenvalues --   -0.63209  -0.61503  -0.54921  -0.51596  -0.50112
 Alpha  occ. eigenvalues --   -0.48125  -0.46952  -0.44684  -0.43115  -0.42766
 Alpha  occ. eigenvalues --   -0.41236  -0.39305  -0.38502  -0.37650  -0.36705
 Alpha  occ. eigenvalues --   -0.34962  -0.31124  -0.26106  -0.24056  -0.22436
 Alpha  occ. eigenvalues --   -0.15974
 Alpha virt. eigenvalues --    0.06309   0.08809   0.09671   0.10477   0.11620
 Alpha virt. eigenvalues --    0.12812   0.13385   0.14843   0.15071   0.16636
 Alpha virt. eigenvalues --    0.17412   0.18017   0.19329   0.20033   0.20285

 Mulliken charges:
               1
     1  C   -0.324062
     2  N   -0.075236
     3  C   -0.019870
     4  C   -0.086432
     5  N   -0.524408
     6  C   -0.096971
     7  N   -0.266595
     8  C   -0.081947
     9  N   -0.511110
    10  H    0.128539
    11  H    0.114178
    12  H    0.098203
    13  H    0.092452
    14  H    0.082971
    15  H    0.231137
    16  H    0.233541
    17  H    0.085854
    18  H    0.079554
    19  H    0.222009
    20  H    0.085117
    21  H    0.079355
    22  H    0.227717
    23  H    0.226002
 Sum of Mulliken charges =  -0.00000

 Dipole moment (field-independent basis, Debye):
    X=              1.1176    Y=              0.1866    Z=              2.1710  Tot=              2.4489
 Quadrupole moment (field-independent basis, Debye-Ang):
   XX=            -52.1960   YY=            -50.3530   ZZ=            -58.8320
   XY=             -1.6210   XZ=             -0.7891   YZ=             -3.7719

  Exact polarizability: 119.230   7.234  92.559  -1.064   0.576  61.530
 Approx polarizability: 154.481  14.051 126.017  -3.039   0.904  95.192

                      1                      2                      3
                      A                      A                      A
 Frequencies --     51.8464                82.7920                98.5282
 Red. masses --      3.6280                 1.9710                 2.5892
 Frc consts  --      0.0057                 0.0080                 0.0148
 IR Inten    --      0.2160                 3.5697                 0.4783

                      4                      5                      6
                      A                      A                      A
 Frequencies --    147.4132               166.9745               180.6075
 Red. masses --      2.7580                 1.6429                 3.0943
 Frc consts  --      0.0353                 0.0270                 0.0595
 IR Inten    --     10.7518                10.5036                 5.8950

                      7                      8                      9
                      A                      A                      A
 Frequencies --    212.4843               261.2863               283.0762
 Red. masses --      2.5501                 1.2433                 1.1360
 Frc consts  --      0.0678                 0.0500                 0.0536
 IR Inten    --      5.2052                23.0643                10.9015

                     10                     11                     12
                      A                      A                      A
 Frequencies --    303.9856               344.4559               364.4132
 Red. masses --      1.5619                 2.7644                 2.4089
 Frc consts  --      0.0850                 0.1932                 0.1885
 IR Inten    --     57.7609                 2.6600                12.9513

                     13                     14                     15
                      A                      A                      A
 Frequencies --    382.5928               461.3732               546.9504
 Red. masses --      3.1366                 3.1580                 3.0714
 Frc consts  --      0.2705                 0.3961                 0.5413
 IR Inten    --      9.3757                15.7435                12.7094

                     16                     17                     18
                      A                      A                      A
 Frequencies --    613.4268               795.8711               820.4672
 Red. masses --      3.7253                 1.3677                 1.3476
 Frc consts  --      0.8259                 0.5104                 0.5345
 IR Inten    --      2.0890               252.9696                 6.6440

                     19                     20                     21
                      A                      A                      A
 Frequencies --    825.6975               862.3068               892.0942
 Red. masses --      1.6305                 1.2408                 3.4459
 Frc consts  --      0.6550                 0.5436                 1.6157
 IR Inten    --    149.3609               155.4118                13.4883

                     22                     23                     24
                      A                      A                      A
 Frequencies --    973.6244               980.1462              1023.0270
 Red. masses --      1.1099                 1.4690                 1.7777
 Frc consts  --      0.6199                 0.8315                 1.0962
 IR Inten    --     35.0592                 2.3492                 2.4426

                     25                     26                     27
                      A                      A                      A
 Frequencies --   1063.1054              1083.6788              1114.6323
 Red. masses --      1.9468                 2.4106                 1.6940
 Frc consts  --      1.2964                 1.6680                 1.2400
 IR Inten    --     65.9996                 1.8303                35.1612

                     28                     29                     30
                      A                      A                      A
 Frequencies --   1143.5123              1160.7143              1178.9901
 Red. masses --      1.5094                 2.6169                 2.3876
 Frc consts  --      1.1628                 2.0772                 1.9554
 IR Inten    --     26.4886               105.7298                31.9759

                     31                     32                     33
                      A                      A                      A
 Frequencies --   1188.5360              1213.3446              1275.7344
 Red. masses --      1.9659                 1.2357                 1.9526
 Frc consts  --      1.6362                 1.0718                 1.8723
 IR Inten    --     38.5544                 1.9646                37.7953

                     34                     35                     36
                      A                      A                      A
 Frequencies --   1277.8901              1310.4171              1336.2811
 Red. masses --      1.6514                 1.6800                 1.2190
 Frc consts  --      1.5889                 1.6997                 1.2825
 IR Inten    --     69.9527                33.2916                 2.7786

                     37                     38                     39
                      A                      A                      A
 Frequencies --   1351.6799              1393.7195              1403.6886
 Red. masses --      1.4667                 1.4649                 1.3278
 Frc consts  --      1.5788                 1.6766                 1.5415
 IR Inten    --     41.7759                16.6518                25.9998

                     40                     41                     42
                      A                      A                      A
 Frequencies --   1445.7346              1471.6733              1479.3351
 Red. masses --      1.2386                 1.1976                 1.2882
 Frc consts  --      1.5253                 1.5282                 1.6610
 IR Inten    --      8.2568                15.0437                91.6530

                     43                     44                     45
                      A                      A                      A
 Frequencies --   1486.8886              1515.6361              1526.5206
 Red. masses --      1.1726                 1.0663                 1.0844
 Frc consts  --      1.5274                 1.4432                 1.4888
 IR Inten    --     32.6252                10.4021                 8.4232

                     46                     47                     48
                      A                      A                      A
 Frequencies --   1540.8510              1642.4181              1646.1130
 Red. masses --      1.0868                 1.1001                 1.1170
 Frc consts  --      1.5203                 1.7485                 1.7832
 IR Inten    --      0.6887                29.1746                30.2800

                     49                     50                     51
                      A                      A                      A
 Frequencies --   1742.4474              2911.9824              2921.5617
 Red. masses --      5.1027                 1.0571                 1.0679
 Frc consts  --      9.1280                 5.2815                 5.3707
 IR Inten    --      0.5562                 7.6188               152.9912

                     52                     53                     54
                      A                      A                      A
 Frequencies --   2938.6837              2941.9714              2947.6721
 Red. masses --      1.0678                 1.0847                 1.0988
 Frc consts  --      5.4333                 5.5314                 5.6249
 IR Inten    --     43.5830               141.3001                87.7619

                     55                     56                     57
                      A                      A                      A
 Frequencies --   3056.3666              3106.6835              3174.7721
 Red. masses --      1.0725                 1.1010                 1.0897
 Frc consts  --      5.9026                 6.2611                 6.4709
 IR Inten    --     34.2293                22.4920                13.9527

                     58                     59                     60
                      A                      A                      A
 Frequencies --   3187.7029              3495.7256              3496.4865
 Red. masses --      1.0869                 1.0491                 1.0480
 Frc consts  --      6.5073                 7.5537                 7.5490
 IR Inten    --     20.9784                 0.3280                 0.5035

                     61                     62                     63
                      A                      A                      A
 Frequencies --   3521.9399              3582.5752              3589.0447
 Red. masses --      1.0735                 1.0925                 1.0942
 Frc consts  --      7.8456                 8.2617                 8.3044
 IR Inten    --      1.8595                 0.2067                 1.2008

 - Thermochemistry -
 -------------------
 Temperature   298.150 Kelvin.  Pressure   1.00000 Atm.
 Atom     1 has atomic number  6 and mass  12.00000

 Molecular mass:   130.12185 amu.
 Principal axes and moments of inertia in atomic units:
                           1         2         3
     Eigenvalues --   710.455762560.991853165.27158
           X            0.99997  -0.00799   0.00153
           Y            0.00800   0.99995  -0.00533
           Z           -0.00149   0.00534   0.99998
 This molecule is an asymmetric top.
 Rotational symmetry number  1.
 Warning -- assumption of classical behavior for rotation
           may cause significant error
 Rotational temperatures (Kelvin)      0.12191     0.03382     0.02736
 Rotational constants (GHZ):           2.54026     0.70470     0.57017
 Zero-point vibrational energy     541562.3 (Joules/Mol)
                                  129.43650 (Kcal/Mol)
 Warning -- explicit consideration of  16 degrees of freedom as
           vibrations may cause significant error
 Vibrational temperatures:     74.60   119.12   141.76   212.09   240.24
          (Kelvin)            259.85   305.72   375.93   407.28   437.37
                              495.60   524.31   550.47   663.81   786.94
                              882.58  1145.08  1180.47  1187.99  1240.67
                             1283.52  1400.83  1410.21  1471.91  1529.57
                             1559.17  1603.71  1645.26  1670.01  1696.30
                             1710.04  1745.73  1835.50  1838.60  1885.40
                             1922.61  1944.77  2005.25  2019.59  2080.09
                             2117.41  2128.43  2139.30  2180.66  2196.32
                             2216.94  2363.07  2368.39  2506.99  4189.69
                             4203.48  4228.11  4232.84  4241.04  4397.43
                             4469.82  4567.79  4586.39  5029.57  5030.66
                             5067.29  5154.53  5163.83

 Zero-point correction=                           0.206270 (Hartree/Particle)
 Thermal correction to Energy=                    0.217539
 Thermal correction to Enthalpy=                  0.218483
 Thermal correction to Gibbs Free Energy=         0.169205
 Sum of electronic and zero-point Energies=           -417.742334
 Sum of electronic and thermal Energies=              -417.731065
 Sum of electronic and thermal Enthalpies=            -417.730121
 Sum of electronic and thermal Free Energies=         -417.779400

                     E (Thermal)             CV                S
                      KCal/Mol        Cal/Mol-Kelvin    Cal/Mol-Kelvin
 Total                  136.508             40.244            103.716
 Electronic               0.000              0.000              0.000
 Translational            0.889              2.981             40.503
 Rotational               0.889              2.981             30.133
 Vibrational            134.730             34.282             33.080
 Vibration     1          0.596              1.977              4.746
 Vibration     2          0.600              1.961              3.824
 Vibration     3          0.604              1.950              3.483
 Vibration     4          0.617              1.905              2.705
 Vibration     5          0.624              1.883              2.469
 Vibration     6          0.630              1.866              2.322
 Vibration     7          0.644              1.822              2.022
 Vibration     8          0.669              1.744              1.653
 Vibration     9          0.682              1.705              1.515
 Vibration    10          0.695              1.666              1.395
 Vibration    11          0.723              1.587              1.191
 Vibration    12          0.738              1.546              1.103
 Vibration    13          0.752              1.507              1.029
 Vibration    14          0.819              1.336              0.762
 Vibration    15          0.902              1.146              0.551
 Vibration    16          0.973              1.003              0.427

 Optimization completed.
    -- Stationary point found.
 Normal termination of Gaussian 16 at Tue Jun  1 20:36:26 2021.
