 Gaussian 16, Revision A.03,
 Gaussian 16:  ES64L-G16RevA.03 25-Dec-2016

 -----------------------------
 # opt freq b3lyp/6-31g(2df,p)
 -----------------------------

 -------------------
 Title Card Required
 -------------------
 Symbolic Z-matrix:
 Charge =  0 Multiplicity = 1

 SCF Done:  E(RB3LYP) =  -243.406603269     A.U. after   13 cycles
 SCF Done:  E(RB3LYP) =  -243.411167004     A.U. after   12 cycles
 SCF Done:  E(RB3LYP) =  -243.413338438     A.U. after   12 cycles
 SCF Done:  E(RB3LYP) =  -243.417378082     A.U. after   14 cycles
 SCF Done:  E(RB3LYP) =  -243.419219071     A.U. after   12 cycles
 SCF Done:  E(RB3LYP) =  -243.421141633     A.U. after   12 cycles
 SCF Done:  E(RB3LYP) =  -243.421936289     A.U. after   11 cycles
 SCF Done:  E(RB3LYP) =  -243.422514912     A.U. after   11 cycles
 SCF Done:  E(RB3LYP) =  -243.422630224     A.U. after   10 cycles
 SCF Done:  E(RB3LYP) =  -243.422660221     A.U. after   10 cycles
 SCF Done:  E(RB3LYP) =  -243.422664417     A.U. after    8 cycles
 SCF Done:  E(RB3LYP) =  -243.422665469     A.U. after    8 cycles
 SCF Done:  E(RB3LYP) =  -243.422665797     A.U. after    7 cycles
 SCF Done:  E(RB3LYP) =  -243.422666025     A.U. after    7 cycles
 Optimization completed.
    -- Stationary point found.
 Normal termination of Gaussian 16 at Tue Jun  1 16:28:08 2021.

 ----------------------------------------------------------------------
 #N Geom=AllCheck Guess=TCheck SCRF=Check GenChk RB3LYP/6-31G(2df,p) Fr
 eq
 ----------------------------------------------------------------------

 Structure from the checkpoint file:  "CNpNpCtN.chk"
 -------------------
 Title Card Required
 -------------------
 Charge =  0 Multiplicity = 1

                         Standard orientation:
 ---------------------------------------------------------------------
 Center     Atomic      Atomic             Coordinates (Angstroms)
 Number     Number       Type             X           Y           Z
 ---------------------------------------------------------------------
      1          6           0        1.033042   -1.199896   -0.056716
      2          7           0        0.298515    0.028950    0.233933
      3          7           0        0.925633    1.265879   -0.053082
      4          6           0       -1.028149    0.026498    0.048183
      5          7           0       -2.182964   -0.014939   -0.071354
      6          1           0        1.960455   -1.203795    0.523331
      7          1           0        1.278061   -1.288752   -1.125240
      8          1           0        0.427647   -2.058489    0.240216
      9          1           0        1.348806    1.229573   -0.981089
     10          1           0        1.667385    1.402623    0.627501
 ---------------------------------------------------------------------

 SCF Done:  E(RB3LYP) =  -243.422666025     A.U. after    1 cycles

 The electronic state is 1-A.
 Alpha  occ. eigenvalues --  -14.41297 -14.37685 -14.31000 -10.24265 -10.23206
 Alpha  occ. eigenvalues --   -1.02670  -0.88747  -0.83246  -0.72707  -0.56766
 Alpha  occ. eigenvalues --   -0.53582  -0.52089  -0.45215  -0.43241  -0.36479
 Alpha  occ. eigenvalues --   -0.34743  -0.32209  -0.29272  -0.24942
 Alpha virt. eigenvalues --    0.03065   0.05295   0.08281   0.10627   0.12417
 Alpha virt. eigenvalues --    0.12845   0.13970   0.15545   0.21604   0.23534
 Alpha virt. eigenvalues --    0.39702   0.42025   0.44441   0.47224   0.49638

 Mulliken charges:
               1
     1  C   -0.337700
     2  N   -0.152337
     3  N   -0.458000
     4  C    0.374408
     5  N   -0.353148
     6  H    0.134873
     7  H    0.129002
     8  H    0.162776
     9  H    0.243989
    10  H    0.256138
 Sum of Mulliken charges =   0.00000

 Dipole moment (field-independent basis, Debye):
    X=              5.5970    Y=             -0.9168    Z=             -0.2932  Tot=              5.6791
 Quadrupole moment (field-independent basis, Debye-Ang):
   XX=            -34.5695   YY=            -28.7610   ZZ=            -28.4674
   XY=              1.3236   XZ=             -0.5780   YZ=             -0.2569

  Exact polarizability:  54.691   1.689  36.963   0.432  -0.258  30.403
 Approx polarizability:  86.007   4.021  49.378   2.994  -0.321  44.587

                      1                      2                      3
                      A                      A                      A
 Frequencies --    152.1771               219.8093               230.9449
 Red. masses --      1.8332                 5.1940                 1.3703
 Frc consts  --      0.0250                 0.1479                 0.0431
 IR Inten    --      4.2209                 3.1175                 6.5165

                      4                      5                      6
                      A                      A                      A
 Frequencies --    340.0731               392.6055               551.5329
 Red. masses --      1.1709                 2.5518                 9.8542
 Frc consts  --      0.0798                 0.2317                 1.7661
 IR Inten    --     22.8382                 5.3616                13.9854

                      7                      8                      9
                      A                      A                      A
 Frequencies --    638.4832               775.9972               918.0732
 Red. masses --      6.9370                 6.0365                 1.6720
 Frc consts  --      1.6662                 2.1417                 0.8303
 IR Inten    --      2.1372                15.5391               110.5243

                     10                     11                     12
                      A                      A                      A
 Frequencies --   1083.7447              1141.2192              1192.0701
 Red. masses --      1.4615                 1.3696                 5.0503
 Frc consts  --      1.0113                 1.0510                 4.2283
 IR Inten    --     15.6207                12.1588                15.3967

                     13                     14                     15
                      A                      A                      A
 Frequencies --   1327.7847              1353.3420              1451.5026
 Red. masses --      1.2919                 2.5843                 1.1465
 Frc consts  --      1.3420                 2.7888                 1.4232
 IR Inten    --      4.4715                 6.0788                 2.0955

                     16                     17                     18
                      A                      A                      A
 Frequencies --   1482.8479              1504.1645              1684.3304
 Red. masses --      1.0512                 1.0664                 1.0900
 Frc consts  --      1.3618                 1.4215                 1.8219
 IR Inten    --     14.3932                 5.9088                 8.2608

                     19                     20                     21
                      A                      A                      A
 Frequencies --   2341.5702              2999.2123              3086.4414
 Red. masses --     12.4764                 1.0467                 1.0896
 Frc consts  --     40.3046                 5.5471                 6.1157
 IR Inten    --    121.3745                47.4479                21.6558

                     22                     23                     24
                      A                      A                      A
 Frequencies --   3139.1057              3430.2084              3544.0894
 Red. masses --      1.1020                 1.0510                 1.0913
 Frc consts  --      6.3982                 7.2859                 8.0761
 IR Inten    --      7.9644                 3.6350                 3.0514

 - Thermochemistry -
 -------------------
 Temperature   298.150 Kelvin.  Pressure   1.00000 Atm.
 Atom     1 has atomic number  6 and mass  12.00000

 Molecular mass:    71.04835 amu.
 Principal axes and moments of inertia in atomic units:
                           1         2         3
     Eigenvalues --   194.59384 425.37595 592.04559
           X            0.99985  -0.01648  -0.00583
           Y            0.01648   0.99986   0.00054
           Z            0.00582  -0.00063   0.99998
 This molecule is an asymmetric top.
 Rotational symmetry number  1.
 Rotational temperatures (Kelvin)      0.44510     0.20362     0.14630
 Rotational constants (GHZ):           9.27440     4.24270     3.04831
 Zero-point vibrational energy     209234.8 (Joules/Mol)
                                   50.00832 (Kcal/Mol)
 Warning -- explicit consideration of   6 degrees of freedom as
           vibrations may cause significant error
 Vibrational temperatures:    218.95   316.26   332.28   489.29   564.87
          (Kelvin)            793.53   918.63  1116.49  1320.90  1559.27
                             1641.96  1715.12  1910.39  1947.16  2088.39
                             2133.49  2164.16  2423.38  3369.00  4315.20
                             4440.70  4516.47  4935.30  5099.15

 Zero-point correction=                           0.079693 (Hartree/Particle)
 Thermal correction to Energy=                    0.085466
 Thermal correction to Enthalpy=                  0.086410
 Thermal correction to Gibbs Free Energy=         0.051101
 Sum of electronic and zero-point Energies=           -243.342973
 Sum of electronic and thermal Energies=              -243.337200
 Sum of electronic and thermal Enthalpies=            -243.336256
 Sum of electronic and thermal Free Energies=         -243.371565

                     E (Thermal)             CV                S
                      KCal/Mol        Cal/Mol-Kelvin    Cal/Mol-Kelvin
 Total                   53.631             19.097             74.315
 Electronic               0.000              0.000              0.000
 Translational            0.889              2.981             38.699
 Rotational               0.889              2.981             25.397
 Vibrational             51.853             13.135             10.218
 Vibration     1          0.619              1.900              2.645
 Vibration     2          0.647              1.811              1.961
 Vibration     3          0.653              1.794              1.872
 Vibration     4          0.720              1.595              1.212
 Vibration     5          0.760              1.486              0.990
 Vibration     6          0.907              1.136              0.541

 Optimization completed.
    -- Stationary point found.
 Normal termination of Gaussian 16 at Tue Jun  1 16:34:18 2021.
