 Gaussian 16, Revision A.03,
 Gaussian 16:  ES64L-G16RevA.03 25-Dec-2016

 -----------------------------
 # opt freq b3lyp/6-31g(2df,p)
 -----------------------------

 -------------------
 Title Card Required
 -------------------
 Symbolic Z-matrix:
 Charge =  0 Multiplicity = 1

 SCF Done:  E(RB3LYP) =  -448.671627672     A.U. after   14 cycles
 SCF Done:  E(RB3LYP) =  -448.686200543     A.U. after   13 cycles
 SCF Done:  E(RB3LYP) =  -448.689434384     A.U. after   12 cycles
 SCF Done:  E(RB3LYP) =  -448.691886044     A.U. after   12 cycles
 SCF Done:  E(RB3LYP) =  -448.695179678     A.U. after   13 cycles
 SCF Done:  E(RB3LYP) =  -448.698170302     A.U. after   12 cycles
 SCF Done:  E(RB3LYP) =  -448.701117155     A.U. after   13 cycles
 SCF Done:  E(RB3LYP) =  -448.703441565     A.U. after   13 cycles
 SCF Done:  E(RB3LYP) =  -448.706198500     A.U. after   12 cycles
 SCF Done:  E(RB3LYP) =  -448.713157906     A.U. after   14 cycles
 SCF Done:  E(RB3LYP) =  -448.720420079     A.U. after   12 cycles
 SCF Done:  E(RB3LYP) =  -448.721938829     A.U. after   12 cycles
 SCF Done:  E(RB3LYP) =  -448.717633773     A.U. after   13 cycles
 SCF Done:  E(RB3LYP) =  -448.722568669     A.U. after   11 cycles
 SCF Done:  E(RB3LYP) =  -448.722656694     A.U. after   11 cycles
 SCF Done:  E(RB3LYP) =  -448.722687934     A.U. after    9 cycles
 SCF Done:  E(RB3LYP) =  -448.722691968     A.U. after    8 cycles
 SCF Done:  E(RB3LYP) =  -448.722692727     A.U. after    8 cycles
 SCF Done:  E(RB3LYP) =  -448.722692781     A.U. after    7 cycles
 Optimization completed.
    -- Stationary point found.
 Normal termination of Gaussian 16 at Tue Jun  1 08:16:03 2021.

 ----------------------------------------------------------------------
 #N Geom=AllCheck Guess=TCheck SCRF=Check GenChk RB3LYP/6-31G(2df,p) Fr
 eq
 ----------------------------------------------------------------------

 Structure from the checkpoint file:  "CNpNNpNpNpCCtN.chk"
 -------------------
 Title Card Required
 -------------------
 Charge =  0 Multiplicity = 1

                         Standard orientation:
 ---------------------------------------------------------------------
 Center     Atomic      Atomic             Coordinates (Angstroms)
 Number     Number       Type             X           Y           Z
 ---------------------------------------------------------------------
      1          6           0       -1.506498    1.687066    0.390142
      2          7           0       -1.090396    0.283401    0.452419
      3          7           0       -2.098811   -0.500887   -0.186027
      4          7           0       -1.937979   -1.887479    0.047205
      5          7           0        0.183931    0.018725   -0.154010
      6          7           0        0.321912    0.596433   -1.445372
      7          6           0        1.256481    0.342855    0.782944
      8          6           0        2.525280   -0.237517    0.332623
      9          7           0        3.523962   -0.682675   -0.039461
     10          1           0       -2.444708    1.776069    0.938435
     11          1           0       -1.659145    2.044410   -0.637744
     12          1           0       -0.755038    2.315889    0.877921
     13          1           0       -2.001539   -0.366696   -1.195071
     14          1           0       -2.230572   -2.058615    1.004970
     15          1           0       -0.944501   -2.123158   -0.009835
     16          1           0        0.914934   -0.011133   -2.000783
     17          1           0        0.760909    1.518334   -1.406983
     18          1           0        0.983040   -0.071904    1.756585
     19          1           0        1.406710    1.429760    0.914977
 ---------------------------------------------------------------------

 SCF Done:  E(RB3LYP) =  -448.722692781     A.U. after    1 cycles

 The electronic state is 1-A.
 Alpha  occ. eigenvalues --  -14.39989 -14.38221 -14.36568 -14.36529 -14.34163
 Alpha  occ. eigenvalues --  -14.33194 -10.27004 -10.23254 -10.21282  -1.05305
 Alpha  occ. eigenvalues --   -0.97285  -0.91311  -0.87816  -0.82128  -0.73312
 Alpha  occ. eigenvalues --   -0.72552  -0.62510  -0.56021  -0.53688  -0.52703
 Alpha  occ. eigenvalues --   -0.49801  -0.48941  -0.48136  -0.47139  -0.44815
 Alpha  occ. eigenvalues --   -0.41227  -0.40542  -0.36995  -0.34622  -0.33840
 Alpha  occ. eigenvalues --   -0.29020  -0.27316  -0.26660  -0.25927  -0.23879
 Alpha virt. eigenvalues --    0.01135   0.02721   0.05598   0.09309   0.10113
 Alpha virt. eigenvalues --    0.12266   0.12761   0.13230   0.13919   0.14882
 Alpha virt. eigenvalues --    0.15338   0.16423   0.17576   0.18689   0.19480

 Mulliken charges:
               1
     1  C   -0.318066
     2  N   -0.050327
     3  N   -0.238258
     4  N   -0.442268
     5  N   -0.073731
     6  N   -0.462199
     7  C   -0.268176
     8  C    0.265974
     9  N   -0.297545
    10  H    0.147388
    11  H    0.121736
    12  H    0.113306
    13  H    0.236276
    14  H    0.240007
    15  H    0.224718
    16  H    0.267424
    17  H    0.230863
    18  H    0.171189
    19  H    0.131690
 Sum of Mulliken charges =   0.00000

 Dipole moment (field-independent basis, Debye):
    X=             -0.5548    Y=              2.7895    Z=              0.8711  Tot=              2.9746
 Quadrupole moment (field-independent basis, Debye-Ang):
   XX=            -72.9677   YY=            -52.1276   ZZ=            -49.7841
   XY=              2.2269   XZ=             -1.0611   YZ=             -1.9974

  Exact polarizability:  89.687  -2.871  72.527  -4.374   0.361  63.746
 Approx polarizability: 125.047  -6.959 104.417 -10.070   2.309  98.717

                      1                      2                      3
                      A                      A                      A
 Frequencies --     60.4181                95.8929               129.0649
 Red. masses --      5.4611                 3.5319                 5.2788
 Frc consts  --      0.0117                 0.0191                 0.0518
 IR Inten    --      6.8211                 4.2701                 3.2616

                      4                      5                      6
                      A                      A                      A
 Frequencies --    160.8831               221.3039               256.9455
 Red. masses --      2.7378                 1.3479                 2.7245
 Frc consts  --      0.0418                 0.0389                 0.1060
 IR Inten    --      6.7336                 0.2113                 2.5303

                      7                      8                      9
                      A                      A                      A
 Frequencies --    273.8847               309.5744               371.0160
 Red. masses --      2.2405                 2.5722                 1.1207
 Frc consts  --      0.0990                 0.1452                 0.0909
 IR Inten    --      1.8727                 5.8841                22.9656

                     10                     11                     12
                      A                      A                      A
 Frequencies --    392.3180               395.0883               425.0802
 Red. masses --      4.6219                 2.4154                 1.2888
 Frc consts  --      0.4191                 0.2221                 0.1372
 IR Inten    --      2.8799                 3.5987                46.6211

                     13                     14                     15
                      A                      A                      A
 Frequencies --    460.7046               495.4446               592.9866
 Red. masses --      3.3336                 5.5001                 3.4187
 Frc consts  --      0.4169                 0.7954                 0.7083
 IR Inten    --      7.9504                 4.9351                 1.3766

                     16                     17                     18
                      A                      A                      A
 Frequencies --    652.2162               776.5745               817.7738
 Red. masses --      3.3254                 4.6428                 2.7112
 Frc consts  --      0.8335                 1.6497                 1.0682
 IR Inten    --      3.4995                35.3476               105.0945

                     19                     20                     21
                      A                      A                      A
 Frequencies --    838.6092               948.7246               960.7929
 Red. masses --      3.3257                 3.8381                 2.5986
 Frc consts  --      1.3780                 2.0354                 1.4133
 IR Inten    --     35.5136                26.1345                99.5009

                     22                     23                     24
                      A                      A                      A
 Frequencies --    984.4628              1031.3892              1098.0895
 Red. masses --      1.6737                 1.7339                 1.7848
 Frc consts  --      0.9557                 1.0867                 1.2680
 IR Inten    --      3.4076                36.3336                27.3239

                     25                     26                     27
                      A                      A                      A
 Frequencies --   1138.8818              1155.2696              1166.9241
 Red. masses --      1.8292                 2.2840                 3.3070
 Frc consts  --      1.3979                 1.7960                 2.6532
 IR Inten    --     28.3995                 8.8823                24.5671

                     28                     29                     30
                      A                      A                      A
 Frequencies --   1189.1136              1234.7811              1254.7218
 Red. masses --      2.0321                 1.7543                 1.3441
 Frc consts  --      1.6929                 1.5759                 1.2468
 IR Inten    --      7.3090                13.9745                14.9645

                     31                     32                     33
                      A                      A                      A
 Frequencies --   1307.3921              1353.0778              1371.0215
 Red. masses --      1.2332                 1.3368                 1.4185
 Frc consts  --      1.2419                 1.4419                 1.5710
 IR Inten    --      6.2211                10.5933                13.7160

                     34                     35                     36
                      A                      A                      A
 Frequencies --   1432.2235              1469.0552              1475.2211
 Red. masses --      1.1730                 1.0786                 1.0522
 Frc consts  --      1.4176                 1.3715                 1.3492
 IR Inten    --      1.7855                 2.1996                 8.6131

                     37                     38                     39
                      A                      A                      A
 Frequencies --   1506.8586              1530.3077              1669.6548
 Red. masses --      1.0468                 1.1203                 1.0814
 Frc consts  --      1.4004                 1.5458                 1.7762
 IR Inten    --      3.7205                 6.3605                13.8798

                     40                     41                     42
                      A                      A                      A
 Frequencies --   1681.4614              2367.1661              2945.0235
 Red. masses --      1.0644                12.6143                 1.0709
 Frc consts  --      1.7731                41.6457                 5.4724
 IR Inten    --     14.0632                 3.0712                29.4060

                     43                     44                     45
                      A                      A                      A
 Frequencies --   3008.4493              3084.8899              3101.3028
 Red. masses --      1.0439                 1.0937                 1.0863
 Frc consts  --      5.5667                 6.1326                 6.1559
 IR Inten    --     35.9351                29.3743                 1.6456

                     46                     47                     48
                      A                      A                      A
 Frequencies --   3144.7338              3404.9682              3412.3248
 Red. masses --      1.0986                 1.0585                 1.0558
 Frc consts  --      6.4009                 7.2305                 7.2430
 IR Inten    --     11.5148                10.4306                 2.2904

                     49                     50                     51
                      A                      A                      A
 Frequencies --   3415.1924              3538.6258              3560.9209
 Red. masses --      1.0678                 1.0860                 1.0869
 Frc consts  --      7.3381                 8.0119                 8.1205
 IR Inten    --      4.6053                 1.3216                 7.2041

 - Thermochemistry -
 -------------------
 Temperature   298.150 Kelvin.  Pressure   1.00000 Atm.
 Atom     1 has atomic number  6 and mass  12.00000

 Molecular mass:   130.09669 amu.
 Principal axes and moments of inertia in atomic units:
                           1         2         3
     Eigenvalues --   665.181341824.502572075.38924
           X            0.99999   0.00220  -0.00411
           Y           -0.00221   1.00000  -0.00195
           Z            0.00411   0.00196   0.99999
 This molecule is an asymmetric top.
 Rotational symmetry number  1.
 Warning -- assumption of classical behavior for rotation
           may cause significant error
 Rotational temperatures (Kelvin)      0.13021     0.04747     0.04173
 Rotational constants (GHZ):           2.71316     0.98917     0.86959
 Zero-point vibrational energy     416712.0 (Joules/Mol)
                                   99.59655 (Kcal/Mol)
 Warning -- explicit consideration of  15 degrees of freedom as
           vibrations may cause significant error
 Vibrational temperatures:     86.93   137.97   185.70   231.47   318.41
          (Kelvin)            369.69   394.06   445.41   533.81   564.46
                              568.44   611.60   662.85   712.83   853.18
                              938.39  1117.32  1176.59  1206.57  1365.00
                             1382.37  1416.42  1483.94  1579.91  1638.60
                             1662.18  1678.94  1710.87  1776.57  1805.26
                             1881.05  1946.78  1972.59  2060.65  2113.64
                             2122.51  2168.03  2201.77  2402.26  2419.25
                             3405.82  4237.23  4328.49  4438.47  4462.08
                             4524.57  4898.99  4909.57  4913.70  5091.29
                             5123.37

 Zero-point correction=                           0.158717 (Hartree/Particle)
 Thermal correction to Energy=                    0.168890
 Thermal correction to Enthalpy=                  0.169834
 Thermal correction to Gibbs Free Energy=         0.123499
 Sum of electronic and zero-point Energies=           -448.563976
 Sum of electronic and thermal Energies=              -448.553803
 Sum of electronic and thermal Enthalpies=            -448.552859
 Sum of electronic and thermal Free Energies=         -448.599194

                     E (Thermal)             CV                S
                      KCal/Mol        Cal/Mol-Kelvin    Cal/Mol-Kelvin
 Total                  105.980             37.049             97.520
 Electronic               0.000              0.000              0.000
 Translational            0.889              2.981             40.502
 Rotational               0.889              2.981             29.311
 Vibrational            104.203             31.087             27.706
 Vibration     1          0.597              1.973              4.443
 Vibration     2          0.603              1.952              3.536
 Vibration     3          0.612              1.924              2.960
 Vibration     4          0.622              1.890              2.539
 Vibration     5          0.648              1.809              1.948
 Vibration     6          0.667              1.751              1.682
 Vibration     7          0.676              1.722              1.572
 Vibration     8          0.699              1.655              1.365
 Vibration     9          0.743              1.532              1.076
 Vibration    10          0.760              1.487              0.991
 Vibration    11          0.762              1.481              0.981
 Vibration    12          0.787              1.416              0.875
 Vibration    13          0.819              1.337              0.764
 Vibration    14          0.851              1.260              0.670
 Vibration    15          0.951              1.047              0.462

 Optimization completed.
    -- Stationary point found.
 Normal termination of Gaussian 16 at Tue Jun  1 08:48:36 2021.
