 Gaussian 16, Revision A.03,
 Gaussian 16:  ES64L-G16RevA.03 25-Dec-2016

 -----------------------------
 # opt freq b3lyp/6-31g(2df,p)
 -----------------------------

 -------------------
 Title Card Required
 -------------------
 Symbolic Z-matrix:
 Charge =  0 Multiplicity = 1

 SCF Done:  E(RB3LYP) =  -416.683298740     A.U. after   14 cycles
 SCF Done:  E(RB3LYP) =  -416.712171587     A.U. after   12 cycles
 SCF Done:  E(RB3LYP) =  -416.714595016     A.U. after   12 cycles
 SCF Done:  E(RB3LYP) =  -416.716827638     A.U. after   12 cycles
 SCF Done:  E(RB3LYP) =  -416.718550054     A.U. after   11 cycles
 SCF Done:  E(RB3LYP) =  -416.720561018     A.U. after   12 cycles
 SCF Done:  E(RB3LYP) =  -416.723165122     A.U. after   14 cycles
 SCF Done:  E(RB3LYP) =  -416.724960567     A.U. after   11 cycles
 SCF Done:  E(RB3LYP) =  -416.725969402     A.U. after   12 cycles
 SCF Done:  E(RB3LYP) =  -416.726121419     A.U. after   10 cycles
 SCF Done:  E(RB3LYP) =  -416.726221853     A.U. after   11 cycles
 SCF Done:  E(RB3LYP) =  -416.726256169     A.U. after   10 cycles
 SCF Done:  E(RB3LYP) =  -416.726264793     A.U. after   10 cycles
 SCF Done:  E(RB3LYP) =  -416.726268290     A.U. after    8 cycles
 SCF Done:  E(RB3LYP) =  -416.726269036     A.U. after    8 cycles
 SCF Done:  E(RB3LYP) =  -416.726269285     A.U. after    7 cycles
 SCF Done:  E(RB3LYP) =  -416.726269335     A.U. after    6 cycles
 SCF Done:  E(RB3LYP) =  -416.726269352     A.U. after    7 cycles
 Optimization completed.
    -- Stationary point found.
 Normal termination of Gaussian 16 at Tue Jun  1 05:04:42 2021.

 ----------------------------------------------------------------------
 #N Geom=AllCheck Guess=TCheck SCRF=Check GenChk RB3LYP/6-31G(2df,p) Fr
 eq
 ----------------------------------------------------------------------

 Structure from the checkpoint file:  "CNpNpCpCNpCCtN.chk"
 -------------------
 Title Card Required
 -------------------
 Charge =  0 Multiplicity = 1

                         Standard orientation:
 ---------------------------------------------------------------------
 Center     Atomic      Atomic             Coordinates (Angstroms)
 Number     Number       Type             X           Y           Z
 ---------------------------------------------------------------------
      1          6           0       -2.484282    0.104477   -0.027993
      2          7           0       -1.283081   -0.662947    0.288112
      3          7           0       -1.334572   -1.957390   -0.322191
      4          6           0       -0.009418   -0.021525   -0.068883
      5          6           0        0.126344    1.400914    0.503738
      6          7           0       -0.518236    2.409498   -0.343960
      7          6           0        1.127739   -0.916360    0.481823
      8          6           0        2.442106   -0.520053   -0.010590
      9          7           0        3.475521   -0.192844   -0.413013
     10          1           0       -3.349873   -0.439792    0.363618
     11          1           0       -2.621624    0.242193   -1.116401
     12          1           0       -2.450318    1.095107    0.421750
     13          1           0       -1.730603   -1.881325   -1.265432
     14          1           0       -1.982569   -2.520792    0.220832
     15          1           0        0.107219    0.037962   -1.168378
     16          1           0        1.197915    1.596956    0.658522
     17          1           0       -0.346193    1.419824    1.493167
     18          1           0        0.000469    2.500312   -1.213185
     19          1           0       -0.464604    3.317110    0.108488
     20          1           0        0.923920   -1.948407    0.188691
     21          1           0        1.123898   -0.878096    1.577127
 ---------------------------------------------------------------------

 SCF Done:  E(RB3LYP) =  -416.726269352     A.U. after    1 cycles

 The electronic state is 1-A.
 Alpha  occ. eigenvalues --  -14.35524 -14.34613 -14.31891 -14.31783 -10.22986
 Alpha  occ. eigenvalues --  -10.21742 -10.21599 -10.21178 -10.20159  -0.98068
 Alpha  occ. eigenvalues --   -0.89476  -0.88841  -0.81626  -0.77411  -0.69696
 Alpha  occ. eigenvalues --   -0.66456  -0.58407  -0.52293  -0.50829  -0.49555
 Alpha  occ. eigenvalues --   -0.48154  -0.47771  -0.44142  -0.43085  -0.41442
 Alpha  occ. eigenvalues --   -0.39871  -0.38298  -0.38239  -0.35536  -0.34734
 Alpha  occ. eigenvalues --   -0.31497  -0.31409  -0.26336  -0.24698  -0.23241
 Alpha virt. eigenvalues --    0.04136   0.05027   0.07283   0.07991   0.10887
 Alpha virt. eigenvalues --    0.11136   0.12776   0.13757   0.14145   0.15669
 Alpha virt. eigenvalues --    0.15997   0.17516   0.17968   0.19333   0.19837

 Mulliken charges:
               1
     1  C   -0.300087
     2  N   -0.097771
     3  N   -0.465657
     4  C    0.111792
     5  C   -0.201951
     6  N   -0.515104
     7  C   -0.346432
     8  C    0.256032
     9  N   -0.323538
    10  H    0.105815
    11  H    0.092221
    12  H    0.144552
    13  H    0.216059
    14  H    0.243520
    15  H    0.066745
    16  H    0.114460
    17  H    0.115867
    18  H    0.232631
    19  H    0.231794
    20  H    0.173653
    21  H    0.145398
 Sum of Mulliken charges =  -0.00000

 Dipole moment (field-independent basis, Debye):
    X=             -4.1274    Y=              0.3436    Z=              0.6135  Tot=              4.1868
 Quadrupole moment (field-independent basis, Debye-Ang):
   XX=            -69.8798   YY=            -48.5882   ZZ=            -53.3966
   XY=              4.2009   XZ=              3.6926   YZ=              0.4488

  Exact polarizability:  96.466   3.739  81.103  -2.526  -0.483  66.229
 Approx polarizability: 131.668   8.910 110.874  -9.506  -2.171 106.780

                      1                      2                      3
                      A                      A                      A
 Frequencies --     58.5893                75.3685               102.0958
 Red. masses --      3.2110                 4.2241                 3.5370
 Frc consts  --      0.0065                 0.0141                 0.0217
 IR Inten    --      0.9915                 5.8627                 4.4620

                      4                      5                      6
                      A                      A                      A
 Frequencies --    169.4479               211.8147               239.8226
 Red. masses --      2.6506                 1.5891                 1.2406
 Frc consts  --      0.0448                 0.0420                 0.0420
 IR Inten    --      5.6404                 4.5016                27.3705

                      7                      8                      9
                      A                      A                      A
 Frequencies --    270.2937               292.9226               315.3927
 Red. masses --      1.8163                 2.2217                 1.4684
 Frc consts  --      0.0782                 0.1123                 0.0861
 IR Inten    --      6.3820                 4.4490                26.5627

                     10                     11                     12
                      A                      A                      A
 Frequencies --    362.7305               373.2427               402.1612
 Red. masses --      2.6459                 2.0776                 3.3103
 Frc consts  --      0.2051                 0.1705                 0.3154
 IR Inten    --      4.0464                 1.2538                 1.5527

                     13                     14                     15
                      A                      A                      A
 Frequencies --    424.0661               492.2513               506.1930
 Red. masses --      4.2226                 2.9389                 2.8636
 Frc consts  --      0.4474                 0.4196                 0.4323
 IR Inten    --      2.6160                 6.0990                12.5818

                     16                     17                     18
                      A                      A                      A
 Frequencies --    587.1397               784.0324               854.0175
 Red. masses --      3.8116                 2.2409                 2.0720
 Frc consts  --      0.7742                 0.8116                 0.8904
 IR Inten    --      5.9930                36.2772                 5.0937

                     19                     20                     21
                      A                      A                      A
 Frequencies --    868.2341               929.0983               960.4339
 Red. masses --      1.6538                 2.3536                 3.1069
 Frc consts  --      0.7345                 1.1970                 1.6885
 IR Inten    --     44.7200               107.6771                 5.9685

                     22                     23                     24
                      A                      A                      A
 Frequencies --   1010.5380              1038.1737              1055.2425
 Red. masses --      1.6982                 1.7671                 3.0373
 Frc consts  --      1.0217                 1.1221                 1.9927
 IR Inten    --      9.5643                17.2413                 4.3102

                     25                     26                     27
                      A                      A                      A
 Frequencies --   1094.0213              1105.8467              1130.6632
 Red. masses --      1.6467                 2.2307                 1.6785
 Frc consts  --      1.1612                 1.6072                 1.2643
 IR Inten    --     13.0652                12.5946                11.1348

                     28                     29                     30
                      A                      A                      A
 Frequencies --   1157.2937              1196.8810              1237.8244
 Red. masses --      1.3165                 2.3900                 1.3065
 Frc consts  --      1.0389                 2.0172                 1.1794
 IR Inten    --      5.2143                20.6684                 4.6062

                     31                     32                     33
                      A                      A                      A
 Frequencies --   1274.7364              1280.4467              1323.0705
 Red. masses --      1.4884                 1.6895                 1.3598
 Frc consts  --      1.4249                 1.6320                 1.4024
 IR Inten    --      1.4439                 2.9432                 4.2328

                     34                     35                     36
                      A                      A                      A
 Frequencies --   1340.2931              1360.1043              1389.9589
 Red. masses --      1.2217                 1.3604                 1.3225
 Frc consts  --      1.2930                 1.4828                 1.5054
 IR Inten    --      6.5770                 1.3823                29.8051

                     37                     38                     39
                      A                      A                      A
 Frequencies --   1435.5903              1464.0970              1474.1345
 Red. masses --      1.4190                 1.1611                 1.0861
 Frc consts  --      1.7230                 1.4665                 1.3906
 IR Inten    --      4.6216                 5.1593                 8.7333

                     40                     41                     42
                      A                      A                      A
 Frequencies --   1476.4093              1492.7027              1508.7977
 Red. masses --      1.0677                 1.0561                 1.0789
 Frc consts  --      1.3712                 1.3864                 1.4471
 IR Inten    --     19.1307                 2.2867                 9.8897

                     43                     44                     45
                      A                      A                      A
 Frequencies --   1658.5686              1668.3641              2356.9317
 Red. masses --      1.0877                 1.0828                12.5967
 Frc consts  --      1.7629                 1.7757                41.2288
 IR Inten    --     27.5038                15.0391                16.4770

                     46                     47                     48
                      A                      A                      A
 Frequencies --   2913.3483              2941.2154              2985.8842
 Red. masses --      1.0807                 1.0595                 1.0685
 Frc consts  --      5.4045                 5.4001                 5.6125
 IR Inten    --     36.7664                71.4060                44.9140

                     49                     50                     51
                      A                      A                      A
 Frequencies --   3053.1798              3057.2210              3067.4332
 Red. masses --      1.0657                 1.0911                 1.0803
 Frc consts  --      5.8534                 6.0087                 5.9887
 IR Inten    --      5.8458                21.3531                46.1625

                     52                     53                     54
                      A                      A                      A
 Frequencies --   3116.5721              3163.2382              3356.8538
 Red. masses --      1.0956                 1.0946                 1.0581
 Frc consts  --      6.2699                 6.4534                 7.0246
 IR Inten    --      7.7458                 8.8067                16.4252

                     55                     56                     57
                      A                      A                      A
 Frequencies --   3489.0967              3530.3815              3565.8186
 Red. masses --      1.0497                 1.0821                 1.0919
 Frc consts  --      7.5294                 7.9464                 8.1801
 IR Inten    --      0.1718                 1.0121                 0.9503

 - Thermochemistry -
 -------------------
 Temperature   298.150 Kelvin.  Pressure   1.00000 Atm.
 Atom     1 has atomic number  6 and mass  12.00000

 Molecular mass:   128.10620 amu.
 Principal axes and moments of inertia in atomic units:
                           1         2         3
     Eigenvalues --   858.477951572.738612260.96926
           X            0.99980   0.01637   0.01128
           Y           -0.01641   0.99986   0.00309
           Z           -0.01123  -0.00328   0.99993
 This molecule is an asymmetric top.
 Rotational symmetry number  1.
 Warning -- assumption of classical behavior for rotation
           may cause significant error
 Rotational temperatures (Kelvin)      0.10089     0.05507     0.03831
 Rotational constants (GHZ):           2.10226     1.14752     0.79822
 Zero-point vibrational energy     478807.0 (Joules/Mol)
                                  114.43762 (Kcal/Mol)
 Warning -- explicit consideration of  16 degrees of freedom as
           vibrations may cause significant error
 Vibrational temperatures:     84.30   108.44   146.89   243.80   304.75
          (Kelvin)            345.05   388.89   421.45   453.78   521.89
                              537.01   578.62   610.14   708.24   728.30
                              844.76  1128.05  1228.74  1249.20  1336.77
                             1381.85  1453.94  1493.70  1518.26  1574.05
                             1591.07  1626.77  1665.09  1722.04  1780.95
                             1834.06  1842.28  1903.60  1928.38  1956.89
                             1999.84  2065.49  2106.51  2120.95  2124.22
                             2147.67  2170.82  2386.31  2400.40  3391.10
                             4191.66  4231.75  4296.02  4392.84  4398.66
                             4413.35  4484.05  4551.19  4829.76  5020.03
                             5079.43  5130.42

 Zero-point correction=                           0.182368 (Hartree/Particle)
 Thermal correction to Energy=                    0.192986
 Thermal correction to Enthalpy=                  0.193930
 Thermal correction to Gibbs Free Energy=         0.146456
 Sum of electronic and zero-point Energies=           -416.543901
 Sum of electronic and thermal Energies=              -416.533283
 Sum of electronic and thermal Enthalpies=            -416.532339
 Sum of electronic and thermal Free Energies=         -416.579813

                     E (Thermal)             CV                S
                      KCal/Mol        Cal/Mol-Kelvin    Cal/Mol-Kelvin
 Total                  121.101             38.441             99.917
 Electronic               0.000              0.000              0.000
 Translational            0.889              2.981             40.456
 Rotational               0.889              2.981             29.502
 Vibrational            119.323             32.480             29.958
 Vibration     1          0.596              1.974              4.504
 Vibration     2          0.599              1.965              4.008
 Vibration     3          0.604              1.947              3.414
 Vibration     4          0.625              1.880              2.442
 Vibration     5          0.643              1.823              2.028
 Vibration     6          0.657              1.780              1.804
 Vibration     7          0.674              1.728              1.594
 Vibration     8          0.688              1.687              1.457
 Vibration     9          0.703              1.644              1.334
 Vibration    10          0.737              1.549              1.110
 Vibration    11          0.745              1.527              1.066
 Vibration    12          0.768              1.465              0.955
 Vibration    13          0.786              1.418              0.878
 Vibration    14          0.848              1.267              0.678
 Vibration    15          0.861              1.236              0.643
 Vibration    16          0.944              1.059              0.472

 Optimization completed.
    -- Stationary point found.
 Normal termination of Gaussian 16 at Tue Jun  1 05:41:28 2021.
