 Gaussian 16, Revision A.03,
 Gaussian 16:  ES64L-G16RevA.03 25-Dec-2016

 -----------------------------
 # opt freq b3lyp/6-31g(2df,p)
 -----------------------------

 -------------------
 Title Card Required
 -------------------
 Symbolic Z-matrix:
 Charge =  0 Multiplicity = 1

 SCF Done:  E(RB3LYP) =  -465.881956098     A.U. after   14 cycles
 SCF Done:  E(RB3LYP) =  -465.898315281     A.U. after   13 cycles
 SCF Done:  E(RB3LYP) =  -465.902448096     A.U. after   13 cycles
 SCF Done:  E(RB3LYP) =  -465.905200210     A.U. after   13 cycles
 SCF Done:  E(RB3LYP) =  -465.908629182     A.U. after   14 cycles
 SCF Done:  E(RB3LYP) =  -465.911684975     A.U. after   13 cycles
 SCF Done:  E(RB3LYP) =  -465.914561950     A.U. after   13 cycles
 SCF Done:  E(RB3LYP) =  -465.917113458     A.U. after   13 cycles
 SCF Done:  E(RB3LYP) =  -465.919401923     A.U. after   12 cycles
 SCF Done:  E(RB3LYP) =  -465.921259356     A.U. after   13 cycles
 SCF Done:  E(RB3LYP) =  -465.928118950     A.U. after   13 cycles
 SCF Done:  E(RB3LYP) =  -465.932301226     A.U. after   13 cycles
 SCF Done:  E(RB3LYP) =  -465.933331553     A.U. after   13 cycles
 SCF Done:  E(RB3LYP) =  -465.933764731     A.U. after   12 cycles
 SCF Done:  E(RB3LYP) =  -465.933846028     A.U. after   12 cycles
 SCF Done:  E(RB3LYP) =  -465.933859145     A.U. after   10 cycles
 SCF Done:  E(RB3LYP) =  -465.933861651     A.U. after    9 cycles
 SCF Done:  E(RB3LYP) =  -465.933862115     A.U. after    8 cycles
 SCF Done:  E(RB3LYP) =  -465.933862265     A.U. after    8 cycles
 Optimization completed.
    -- Stationary point found.
 Normal termination of Gaussian 16 at Tue Jun  1 02:50:54 2021.

 ----------------------------------------------------------------------
 #N Geom=AllCheck Guess=TCheck SCRF=Check GenChk RB3LYP/6-31G(2df,p) Fr
 eq
 ----------------------------------------------------------------------

 Structure from the checkpoint file:  "CNpNNpNpNpCNdN.chk"
 -------------------
 Title Card Required
 -------------------
 Charge =  0 Multiplicity = 1

                         Standard orientation:
 ---------------------------------------------------------------------
 Center     Atomic      Atomic             Coordinates (Angstroms)
 Number     Number       Type             X           Y           Z
 ---------------------------------------------------------------------
      1          6           0       -1.586638    1.549186    0.754221
      2          7           0       -1.098265    0.187716    0.524444
      3          7           0       -2.152159   -0.564047   -0.082354
      4          7           0       -1.881217   -1.955410   -0.088672
      5          7           0        0.079149    0.112838   -0.282038
      6          7           0       -0.016640    0.866342   -1.487670
      7          6           0        1.270748    0.368961    0.500841
      8          7           0        2.426264   -0.166804   -0.240875
      9          7           0        3.288130   -0.641450    0.512522
     10          1           0       -2.436795    1.485566    1.434281
     11          1           0       -1.907771    2.054131   -0.168136
     12          1           0       -0.798907    2.142674    1.228991
     13          1           0       -2.200507   -0.282164   -1.064280
     14          1           0       -2.016003   -2.279218    0.865231
     15          1           0       -0.891881   -2.094632   -0.309820
     16          1           0        0.578526    0.406337   -2.168722
     17          1           0        0.355659    1.810999   -1.356875
     18          1           0        1.165210   -0.099647    1.481904
     19          1           0        1.472921    1.450106    0.632335
     20          1           0        4.058047   -0.977325   -0.092778
 ---------------------------------------------------------------------

 SCF Done:  E(RB3LYP) =  -465.933862265     A.U. after    1 cycles

 The electronic state is 1-A.
 Alpha  occ. eigenvalues --  -14.39505 -14.38473 -14.38066 -14.36935 -14.35377
 Alpha  occ. eigenvalues --  -14.35073 -14.32206 -10.24292 -10.20198  -1.04857
 Alpha  occ. eigenvalues --   -1.03244  -0.95767  -0.86600  -0.80686  -0.73205
 Alpha  occ. eigenvalues --   -0.71681  -0.63070  -0.59561  -0.53717  -0.51592
 Alpha  occ. eigenvalues --   -0.50644  -0.48964  -0.47416  -0.46801  -0.45397
 Alpha  occ. eigenvalues --   -0.44050  -0.40777  -0.40035  -0.39636  -0.36457
 Alpha  occ. eigenvalues --   -0.27761  -0.25991  -0.25718  -0.24980  -0.23705
 Alpha  occ. eigenvalues --   -0.22622
 Alpha virt. eigenvalues --   -0.05340   0.06887   0.09822   0.10461   0.11330
 Alpha virt. eigenvalues --    0.13150   0.13995   0.14562   0.15379   0.15746
 Alpha virt. eigenvalues --    0.16075   0.17179   0.18028   0.19610   0.22397

 Mulliken charges:
               1
     1  C   -0.315455
     2  N   -0.055058
     3  N   -0.239657
     4  N   -0.444440
     5  N   -0.072185
     6  N   -0.462673
     7  C   -0.044627
     8  N   -0.123838
     9  N   -0.266318
    10  H    0.142400
    11  H    0.116611
    12  H    0.113242
    13  H    0.233973
    14  H    0.237520
    15  H    0.221632
    16  H    0.258199
    17  H    0.221442
    18  H    0.134219
    19  H    0.096552
    20  H    0.248462
 Sum of Mulliken charges =  -0.00000

 Dipole moment (field-independent basis, Debye):
    X=              2.5217    Y=              1.7975    Z=             -0.2993  Tot=              3.1112
 Quadrupole moment (field-independent basis, Debye-Ang):
   XX=            -57.1353   YY=            -51.6705   ZZ=            -53.9907
   XY=             -3.4813   XZ=             -4.7677   YZ=             -1.1391

  Exact polarizability:  92.259  -5.455  74.468  -1.166  -1.034  65.710
 Approx polarizability: 119.703  -7.316 106.775   1.767  -3.882 101.948

                      1                      2                      3
                      A                      A                      A
 Frequencies --     52.5467                96.3783               110.5758
 Red. masses --      5.2409                 3.0349                 7.0498
 Frc consts  --      0.0085                 0.0166                 0.0508
 IR Inten    --      0.7125                 1.2208                 0.0695

                      4                      5                      6
                      A                      A                      A
 Frequencies --    143.1383               190.9571               226.5851
 Red. masses --      3.8038                 2.3006                 1.4324
 Frc consts  --      0.0459                 0.0494                 0.0433
 IR Inten    --      1.8050                 2.0488                 0.8672

                      7                      8                      9
                      A                      A                      A
 Frequencies --    269.2952               308.6755               310.2197
 Red. masses --      1.9033                 2.5432                 2.2303
 Frc consts  --      0.0813                 0.1428                 0.1265
 IR Inten    --      6.9486                 6.3793                 2.4271

                     10                     11                     12
                      A                      A                      A
 Frequencies --    351.8412               415.2879               433.0982
 Red. masses --      1.2783                 1.4240                 2.7346
 Frc consts  --      0.0932                 0.1447                 0.3022
 IR Inten    --     24.8047                39.5293                18.0496

                     13                     14                     15
                      A                      A                      A
 Frequencies --    459.2394               502.0763               599.3696
 Red. masses --      3.4598                 3.1406                 3.2856
 Frc consts  --      0.4299                 0.4665                 0.6954
 IR Inten    --      2.6171                11.3220                 0.3407

                     16                     17                     18
                      A                      A                      A
 Frequencies --    655.4406               762.5307               834.9871
 Red. masses --      3.1330                 2.7958                 2.3063
 Frc consts  --      0.7930                 0.9578                 0.9474
 IR Inten    --      5.4820                15.0798                40.8848

                     19                     20                     21
                      A                      A                      A
 Frequencies --    848.9956               880.0217               963.8443
 Red. masses --      2.9235                 2.1674                 3.2590
 Frc consts  --      1.2415                 0.9890                 1.7838
 IR Inten    --    124.1784                14.5677               121.4780

                     22                     23                     24
                      A                      A                      A
 Frequencies --    999.1921              1025.4348              1069.5616
 Red. masses --      2.4146                 1.6137                 1.4435
 Frc consts  --      1.4204                 0.9998                 0.9729
 IR Inten    --      2.9359                22.8462                33.5829

                     25                     26                     27
                      A                      A                      A
 Frequencies --   1137.5978              1145.2322              1171.1330
 Red. masses --      1.8805                 1.5030                 1.9302
 Frc consts  --      1.4338                 1.1615                 1.5598
 IR Inten    --     27.9077                15.7811                42.6539

                     28                     29                     30
                      A                      A                      A
 Frequencies --   1190.6417              1197.1763              1235.7702
 Red. masses --      2.0088                 4.3157                 1.7031
 Frc consts  --      1.6778                 3.6444                 1.5324
 IR Inten    --     16.6174                38.2355                15.3859

                     31                     32                     33
                      A                      A                      A
 Frequencies --   1264.9803              1314.1056              1357.0750
 Red. masses --      1.4548                 1.2306                 1.3469
 Frc consts  --      1.3716                 1.2520                 1.4615
 IR Inten    --     13.9631                13.8268                10.6094

                     34                     35                     36
                      A                      A                      A
 Frequencies --   1375.2066              1431.2845              1468.8047
 Red. masses --      1.3851                 1.1748                 1.0897
 Frc consts  --      1.5434                 1.4180                 1.3852
 IR Inten    --     21.6706                 1.5161                 3.1122

                     37                     38                     39
                      A                      A                      A
 Frequencies --   1475.2905              1492.3207              1507.7257
 Red. masses --      1.0525                 1.2941                 1.0461
 Frc consts  --      1.3497                 1.6980                 1.4011
 IR Inten    --      6.7447                27.8905                 3.0456

                     40                     41                     42
                      A                      A                      A
 Frequencies --   1531.3860              1663.4373              1672.6940
 Red. masses --      1.1206                 7.5711                 1.1231
 Frc consts  --      1.5483                12.3431                 1.8513
 IR Inten    --      5.6307                 2.1170                14.2837

                     43                     44                     45
                      A                      A                      A
 Frequencies --   1680.9483              2912.2104              3002.7711
 Red. masses --      1.0642                 1.0686                 1.0454
 Frc consts  --      1.7716                 5.3397                 5.5536
 IR Inten    --     13.1742                46.0802                40.0363

                     46                     47                     48
                      A                      A                      A
 Frequencies --   3082.2510              3106.7668              3141.7204
 Red. masses --      1.0916                 1.0902                 1.0988
 Frc consts  --      6.1101                 6.1998                 6.3903
 IR Inten    --     29.3695                 6.5124                13.8960

                     49                     50                     51
                      A                      A                      A
 Frequencies --   3247.0667              3387.3875              3398.5042
 Red. masses --      1.0740                 1.0577                 1.0559
 Frc consts  --      6.6719                 7.1503                 7.1855
 IR Inten    --     27.9535                 9.9839                10.9066

                     52                     53                     54
                      A                      A                      A
 Frequencies --   3410.8858              3532.3111              3557.0894
 Red. masses --      1.0717                 1.0851                 1.0830
 Frc consts  --      7.3458                 7.9773                 8.0734
 IR Inten    --      3.7379                 0.8693                 6.2999

 - Thermochemistry -
 -------------------
 Temperature   298.150 Kelvin.  Pressure   1.00000 Atm.
 Atom     1 has atomic number  6 and mass  12.00000

 Molecular mass:   133.10759 amu.
 Principal axes and moments of inertia in atomic units:
                           1         2         3
     Eigenvalues --   708.296921859.805652101.78078
           X            0.99992  -0.01007  -0.00711
           Y            0.01017   0.99985   0.01402
           Z            0.00697  -0.01409   0.99988
 This molecule is an asymmetric top.
 Rotational symmetry number  1.
 Warning -- assumption of classical behavior for rotation
           may cause significant error
 Rotational temperatures (Kelvin)      0.12228     0.04657     0.04121
 Rotational constants (GHZ):           2.54800     0.97039     0.85867
 Zero-point vibrational energy     446213.5 (Joules/Mol)
                                  106.64758 (Kcal/Mol)
 Warning -- explicit consideration of  15 degrees of freedom as
           vibrations may cause significant error
 Vibrational temperatures:     75.60   138.67   159.09   205.94   274.74
          (Kelvin)            326.01   387.46   444.12   446.34   506.22
                              597.51   623.13   660.74   722.38   862.36
                              943.03  1097.11  1201.36  1221.52  1266.15
                             1386.76  1437.61  1475.37  1538.86  1636.75
                             1647.73  1685.00  1713.07  1722.47  1778.00
                             1820.02  1890.70  1952.53  1978.62  2059.30
                             2113.28  2122.61  2147.12  2169.28  2203.32
                             2393.32  2406.63  2418.51  4190.02  4320.32
                             4434.67  4469.94  4520.23  4671.80  4873.70
                             4889.69  4907.50  5082.21  5117.86

 Zero-point correction=                           0.169954 (Hartree/Particle)
 Thermal correction to Energy=                    0.180416
 Thermal correction to Enthalpy=                  0.181360
 Thermal correction to Gibbs Free Energy=         0.134126
 Sum of electronic and zero-point Energies=           -465.763909
 Sum of electronic and thermal Energies=              -465.753447
 Sum of electronic and thermal Enthalpies=            -465.752502
 Sum of electronic and thermal Free Energies=         -465.799736

                     E (Thermal)             CV                S
                      KCal/Mol        Cal/Mol-Kelvin    Cal/Mol-Kelvin
 Total                  113.212             37.704             99.411
 Electronic               0.000              0.000              0.000
 Translational            0.889              2.981             40.570
 Rotational               0.889              2.981             29.405
 Vibrational            111.435             31.742             29.436
 Vibration     1          0.596              1.977              4.719
 Vibration     2          0.603              1.952              3.526
 Vibration     3          0.606              1.941              3.259
 Vibration     4          0.616              1.910              2.761
 Vibration     5          0.634              1.852              2.219
 Vibration     6          0.650              1.801              1.906
 Vibration     7          0.674              1.730              1.601
 Vibration     8          0.698              1.657              1.369
 Vibration     9          0.699              1.654              1.361
 Vibration    10          0.728              1.571              1.158
 Vibration    11          0.779              1.437              0.908
 Vibration    12          0.794              1.398              0.849
 Vibration    13          0.817              1.340              0.768
 Vibration    14          0.857              1.245              0.653
 Vibration    15          0.957              1.033              0.451

                           ! Non-Optimized Parameters !
 Normal termination of Gaussian 16 at Tue Jun  1 03:24:19 2021.
