 Gaussian 16, Revision A.03,
 Gaussian 16:  ES64L-G16RevA.03 25-Dec-2016

 -----------------------------
 # opt freq b3lyp/6-31g(2df,p)
 -----------------------------

 -------------------
 Title Card Required
 -------------------
 Symbolic Z-matrix:
 Charge =  0 Multiplicity = 1

 SCF Done:  E(RB3LYP) =  -394.595840093     A.U. after   14 cycles
 SCF Done:  E(RB3LYP) =  -394.606727384     A.U. after   14 cycles
 SCF Done:  E(RB3LYP) =  -394.609896658     A.U. after   13 cycles
 SCF Done:  E(RB3LYP) =  -394.613286927     A.U. after   13 cycles
 SCF Done:  E(RB3LYP) =  -394.615562085     A.U. after   13 cycles
 SCF Done:  E(RB3LYP) =  -394.616620375     A.U. after   13 cycles
 SCF Done:  E(RB3LYP) =  -394.616893428     A.U. after   12 cycles
 SCF Done:  E(RB3LYP) =  -394.616991830     A.U. after   12 cycles
 SCF Done:  E(RB3LYP) =  -394.617065030     A.U. after    9 cycles
 SCF Done:  E(RB3LYP) =  -394.617101941     A.U. after   10 cycles
 SCF Done:  E(RB3LYP) =  -394.617109833     A.U. after    9 cycles
 SCF Done:  E(RB3LYP) =  -394.617112512     A.U. after    9 cycles
 SCF Done:  E(RB3LYP) =  -394.617113724     A.U. after    8 cycles
 SCF Done:  E(RB3LYP) =  -394.617114360     A.U. after    8 cycles
 SCF Done:  E(RB3LYP) =  -394.617114873     A.U. after    8 cycles
 SCF Done:  E(RB3LYP) =  -394.617115432     A.U. after    8 cycles
 SCF Done:  E(RB3LYP) =  -394.617115719     A.U. after    8 cycles
 Optimization completed.
    -- Stationary point found.
 Normal termination of Gaussian 16 at Mon May 31 19:37:16 2021.

 ----------------------------------------------------------------------
 #N Geom=AllCheck Guess=TCheck SCRF=Check GenChk RB3LYP/6-31G(2df,p) Fr
 eq
 ----------------------------------------------------------------------

 Structure from the checkpoint file:  "CNpNpCNpCpNdN.chk"
 -------------------
 Title Card Required
 -------------------
 Charge =  0 Multiplicity = 1

                         Standard orientation:
 ---------------------------------------------------------------------
 Center     Atomic      Atomic             Coordinates (Angstroms)
 Number     Number       Type             X           Y           Z
 ---------------------------------------------------------------------
      1          6           0        2.797749    0.342712    0.454438
      2          7           0        1.515453    0.134452   -0.208786
      3          7           0        1.550576   -1.205055   -0.810232
      4          6           0        0.426310    0.161116    0.752439
      5          7           0       -0.855668    0.205472    0.078604
      6          6           0       -1.235569    1.369507   -0.704827
      7          7           0       -1.766059   -0.678458    0.499256
      8          7           0       -2.931648   -0.465556    0.070898
      9          1           0        3.595624    0.330502   -0.293956
     10          1           0        3.022005   -0.432030    1.205099
     11          1           0        2.798014    1.327268    0.931595
     12          1           0        2.004711   -1.067549   -1.713743
     13          1           0        0.579303   -1.399332   -1.056167
     14          1           0        0.569027    1.053593    1.376057
     15          1           0        0.400820   -0.728383    1.399821
     16          1           0       -0.318707    1.882713   -0.994579
     17          1           0       -1.890633    2.036704   -0.130155
     18          1           0       -1.786693    1.055501   -1.594156
     19          1           0       -3.492980   -1.234983    0.449711
 ---------------------------------------------------------------------

 SCF Done:  E(RB3LYP) =  -394.617115719     A.U. after    1 cycles

 The electronic state is 1-A.
 Alpha  occ. eigenvalues --  -14.40018 -14.37854 -14.35113 -14.33680 -14.33082
 Alpha  occ. eigenvalues --  -10.24385 -10.20945 -10.20415  -1.05995  -0.97374
 Alpha  occ. eigenvalues --   -0.90179  -0.80170  -0.73282  -0.71829  -0.62798
 Alpha  occ. eigenvalues --   -0.56796  -0.51774  -0.51185  -0.48666  -0.47592
 Alpha  occ. eigenvalues --   -0.45190  -0.42448  -0.41276  -0.39535  -0.38591
 Alpha  occ. eigenvalues --   -0.38090  -0.37968  -0.37416  -0.31515  -0.23596
 Alpha  occ. eigenvalues --   -0.23440  -0.20232
 Alpha virt. eigenvalues --   -0.00447   0.07820   0.11205   0.11571   0.12780
 Alpha virt. eigenvalues --    0.13469   0.14674   0.14922   0.16039   0.17079
 Alpha virt. eigenvalues --    0.17408   0.17835   0.18503   0.19515   0.21812

 Mulliken charges:
               1
     1  C   -0.286155
     2  N   -0.098587
     3  N   -0.480314
     4  C   -0.082006
     5  N    0.036970
     6  C   -0.333677
     7  N   -0.091348
     8  N   -0.373391
     9  H    0.119485
    10  H    0.109049
    11  H    0.116931
    12  H    0.238780
    13  H    0.245091
    14  H    0.105879
    15  H    0.117469
    16  H    0.137598
    17  H    0.131496
    18  H    0.148404
    19  H    0.238325
 Sum of Mulliken charges =  -0.00000

 Dipole moment (field-independent basis, Debye):
    X=              1.2309    Y=              1.0522    Z=             -0.2910  Tot=              1.6453
 Quadrupole moment (field-independent basis, Debye-Ang):
   XX=            -50.6991   YY=            -49.5137   ZZ=            -46.4740
   XY=              3.1671   XZ=             -1.3425   YZ=              1.8873

  Exact polarizability:  97.899   8.311  65.052   0.681  -0.346  59.921
 Approx polarizability: 133.455  14.375  95.812   1.065  -0.617  88.613

                      1                      2                      3
                      A                      A                      A
 Frequencies --     47.4885                92.6049               126.9688
 Red. masses --      3.8148                 3.1266                 2.6414
 Frc consts  --      0.0051                 0.0158                 0.0251
 IR Inten    --      0.0791                 0.5620                 0.6373

                      4                      5                      6
                      A                      A                      A
 Frequencies --    169.2909               178.2611               251.2829
 Red. masses --      1.1036                 1.1443                 1.2840
 Frc consts  --      0.0186                 0.0214                 0.0478
 IR Inten    --     40.9425                 4.6469                 9.2212

                      7                      8                      9
                      A                      A                      A
 Frequencies --    274.8778               323.6178               346.3425
 Red. masses --      2.7857                 2.7021                 4.9124
 Frc consts  --      0.1240                 0.1667                 0.3472
 IR Inten    --      2.1389                 0.5410                10.8182

                     10                     11                     12
                      A                      A                      A
 Frequencies --    373.6798               413.2439               445.8967
 Red. masses --      2.9621                 3.1883                 2.0433
 Frc consts  --      0.2437                 0.3208                 0.2394
 IR Inten    --      3.1649                 7.6793                 8.6384

                     13                     14                     15
                      A                      A                      A
 Frequencies --    499.7017               734.4670               839.8676
 Red. masses --      3.7975                 3.8776                 5.0108
 Frc consts  --      0.5587                 1.2324                 2.0825
 IR Inten    --      6.3816                41.4368                16.5925

                     16                     17                     18
                      A                      A                      A
 Frequencies --    847.8111               930.5898              1007.0208
 Red. masses --      3.9452                 1.1614                 2.4471
 Frc consts  --      1.6708                 0.5926                 1.4621
 IR Inten    --     14.8228                38.4620                30.6222

                     19                     20                     21
                      A                      A                      A
 Frequencies --   1023.4763              1058.7877              1090.4169
 Red. masses --      1.9691                 1.7240                 1.7390
 Frc consts  --      1.2153                 1.1387                 1.2183
 IR Inten    --     70.5979               122.1672                62.1399

                     22                     23                     24
                      A                      A                      A
 Frequencies --   1136.6187              1140.7673              1169.1400
 Red. masses --      1.3189                 1.5113                 1.4020
 Frc consts  --      1.0039                 1.1587                 1.1291
 IR Inten    --      7.1281                 4.5935                40.0207

                     25                     26                     27
                      A                      A                      A
 Frequencies --   1207.7170              1247.7194              1317.5002
 Red. masses --      1.6902                 2.2913                 2.9344
 Frc consts  --      1.4525                 2.1017                 3.0010
 IR Inten    --     39.5745                19.8069                 6.6011

                     28                     29                     30
                      A                      A                      A
 Frequencies --   1360.6509              1392.5610              1417.7940
 Red. masses --      1.6710                 1.3427                 1.3894
 Frc consts  --      1.8227                 1.5341                 1.6456
 IR Inten    --     56.6563                50.2825                36.9512

                     31                     32                     33
                      A                      A                      A
 Frequencies --   1430.9474              1452.2127              1472.5038
 Red. masses --      1.2533                 1.1926                 1.0606
 Frc consts  --      1.5121                 1.4819                 1.3549
 IR Inten    --      5.1113                 5.4745                 6.3860

                     34                     35                     36
                      A                      A                      A
 Frequencies --   1480.8750              1484.2353              1490.9207
 Red. masses --      1.0598                 1.1064                 1.6829
 Frc consts  --      1.3694                 1.4361                 2.2040
 IR Inten    --     11.3974                 4.7428                26.2475

                     37                     38                     39
                      A                      A                      A
 Frequencies --   1506.5516              1509.1517              1557.2961
 Red. masses --      1.1055                 1.0582                 4.2545
 Frc consts  --      1.4783                 1.4199                 6.0791
 IR Inten    --     26.5468                 5.9328               113.6923

                     40                     41                     42
                      A                      A                      A
 Frequencies --   1660.7544              2977.3991              2991.2305
 Red. masses --      1.0703                 1.0501                 1.0554
 Frc consts  --      1.7392                 5.4848                 5.5635
 IR Inten    --     26.9563                41.4076                64.5101

                     43                     44                     45
                      A                      A                      A
 Frequencies --   3025.3276              3040.7103              3074.5790
 Red. masses --      1.0446                 1.1053                 1.0827
 Frc consts  --      5.6330                 6.0210                 6.0304
 IR Inten    --     24.5271                26.1365                31.0038

                     46                     47                     48
                      A                      A                      A
 Frequencies --   3103.0025              3110.7906              3158.5950
 Red. masses --      1.0896                 1.1027                 1.1031
 Frc consts  --      6.1816                 6.2872                 6.4840
 IR Inten    --     11.5721                26.1906                 3.8776

                     49                     50                     51
                      A                      A                      A
 Frequencies --   3392.0071              3431.9751              3508.4031
 Red. masses --      1.0747                 1.0504                 1.0910
 Frc consts  --      7.2854                 7.2891                 7.9122
 IR Inten    --      0.9087                 3.4190                 2.5912

 - Thermochemistry -
 -------------------
 Temperature   298.150 Kelvin.  Pressure   1.00000 Atm.
 Atom     1 has atomic number  6 and mass  12.00000

 Molecular mass:   117.10145 amu.
 Principal axes and moments of inertia in atomic units:
                           1         2         3
     Eigenvalues --   410.255501611.823241716.36799
           X            0.99993  -0.00275   0.01172
           Y            0.00277   1.00000  -0.00143
           Z           -0.01171   0.00146   0.99993
 This molecule is an asymmetric top.
 Rotational symmetry number  1.
 Rotational temperatures (Kelvin)      0.21112     0.05374     0.05046
 Rotational constants (GHZ):           4.39907     1.11969     1.05149
 Zero-point vibrational energy     432603.3 (Joules/Mol)
                                  103.39468 (Kcal/Mol)
 Warning -- explicit consideration of  13 degrees of freedom as
           vibrations may cause significant error
 Vibrational temperatures:     68.33   133.24   182.68   243.57   256.48
          (Kelvin)            361.54   395.49   465.61   498.31   537.64
                              594.57   641.55   718.96  1056.73  1208.38
                             1219.81  1338.91  1448.88  1472.55  1523.36
                             1568.87  1635.34  1641.31  1682.13  1737.64
                             1795.19  1895.59  1957.67  2003.58  2039.89
                             2058.81  2089.41  2118.60  2130.65  2135.48
                             2145.10  2167.59  2171.33  2240.60  2389.46
                             4283.81  4303.71  4352.77  4374.90  4423.63
                             4464.53  4475.73  4544.51  4880.34  4937.85
                             5047.81

 Zero-point correction=                           0.164770 (Hartree/Particle)
 Thermal correction to Energy=                    0.174481
 Thermal correction to Enthalpy=                  0.175425
 Thermal correction to Gibbs Free Energy=         0.129953
 Sum of electronic and zero-point Energies=           -394.452346
 Sum of electronic and thermal Energies=              -394.442635
 Sum of electronic and thermal Enthalpies=            -394.441691
 Sum of electronic and thermal Free Energies=         -394.487163

                     E (Thermal)             CV                S
                      KCal/Mol        Cal/Mol-Kelvin    Cal/Mol-Kelvin
 Total                  109.488             33.884             95.704
 Electronic               0.000              0.000              0.000
 Translational            0.889              2.981             40.189
 Rotational               0.889              2.981             28.519
 Vibrational            107.711             27.922             26.996
 Vibration     1          0.595              1.979              4.919
 Vibration     2          0.602              1.954              3.604
 Vibration     3          0.611              1.926              2.991
 Vibration     4          0.625              1.880              2.443
 Vibration     5          0.629              1.869              2.347
 Vibration     6          0.663              1.761              1.722
 Vibration     7          0.677              1.720              1.565
 Vibration     8          0.708              1.628              1.292
 Vibration     9          0.724              1.583              1.183
 Vibration    10          0.745              1.526              1.065
 Vibration    11          0.777              1.441              0.915
 Vibration    12          0.805              1.370              0.808
 Vibration    13          0.855              1.251              0.659

 Optimization completed.
    -- Stationary point found.
 Normal termination of Gaussian 16 at Mon May 31 19:59:14 2021.
