 Gaussian 16, Revision A.03,
 Gaussian 16:  ES64L-G16RevA.03 25-Dec-2016

 -----------------------------
 # opt freq b3lyp/6-31g(2df,p)
 -----------------------------

 -------------------
 Title Card Required
 -------------------
 Symbolic Z-matrix:
 Charge =  0 Multiplicity = 1

 SCF Done:  E(RB3LYP) =  -393.364375385     A.U. after   13 cycles
 SCF Done:  E(RB3LYP) =  -393.374979522     A.U. after   12 cycles
 SCF Done:  E(RB3LYP) =  -393.378502534     A.U. after   11 cycles
 SCF Done:  E(RB3LYP) =  -393.382578702     A.U. after   13 cycles
 SCF Done:  E(RB3LYP) =  -393.385866746     A.U. after   13 cycles
 SCF Done:  E(RB3LYP) =  -393.388518665     A.U. after   12 cycles
 SCF Done:  E(RB3LYP) =  -393.389500430     A.U. after   11 cycles
 SCF Done:  E(RB3LYP) =  -393.389647458     A.U. after   11 cycles
 SCF Done:  E(RB3LYP) =  -393.389712406     A.U. after   10 cycles
 SCF Done:  E(RB3LYP) =  -393.389732325     A.U. after    9 cycles
 SCF Done:  E(RB3LYP) =  -393.389742906     A.U. after   10 cycles
 SCF Done:  E(RB3LYP) =  -393.389748144     A.U. after   10 cycles
 SCF Done:  E(RB3LYP) =  -393.389754804     A.U. after   10 cycles
 SCF Done:  E(RB3LYP) =  -393.389768485     A.U. after   11 cycles
 SCF Done:  E(RB3LYP) =  -393.389781547     A.U. after    9 cycles
 SCF Done:  E(RB3LYP) =  -393.389790430     A.U. after   10 cycles
 SCF Done:  E(RB3LYP) =  -393.389791315     A.U. after    8 cycles
 SCF Done:  E(RB3LYP) =  -393.389791377     A.U. after    7 cycles
 SCF Done:  E(RB3LYP) =  -393.389791385     A.U. after    7 cycles
 Optimization completed.
    -- Stationary point found.
 Normal termination of Gaussian 16 at Tue Jun  1 08:29:27 2021.

 ----------------------------------------------------------------------
 #N Geom=AllCheck Guess=TCheck SCRF=Check GenChk RB3LYP/6-31G(2df,p) Fr
 eq
 ----------------------------------------------------------------------

 Structure from the checkpoint file:  "CNpNNpNCCtN.chk"
 -------------------
 Title Card Required
 -------------------
 Charge =  0 Multiplicity = 1

                         Standard orientation:
 ---------------------------------------------------------------------
 Center     Atomic      Atomic             Coordinates (Angstroms)
 Number     Number       Type             X           Y           Z
 ---------------------------------------------------------------------
      1          6           0       -1.249083    1.655536   -0.056082
      2          7           0       -0.875446    0.256324    0.144384
      3          7           0       -1.836865   -0.583666   -0.595932
      4          7           0       -2.847592   -1.076513    0.262935
      5          7           0        0.408339   -0.032554   -0.380774
      6          6           0        1.421662    0.055973    0.669516
      7          6           0        2.750790   -0.219933    0.117597
      8          7           0        3.801461   -0.416553   -0.319459
      9          1           0       -2.264176    1.808669    0.319232
     10          1           0       -1.223849    1.941238   -1.119421
     11          1           0       -0.576074    2.298560    0.518920
     12          1           0       -1.262197   -1.380378   -0.860238
     13          1           0       -3.579439   -0.375334    0.319453
     14          1           0       -2.473944   -1.205820    1.205307
     15          1           0        0.644099    0.588243   -1.157162
     16          1           0        1.187025   -0.689148    1.435590
     17          1           0        1.459062    1.035244    1.174050
 ---------------------------------------------------------------------

 SCF Done:  E(RB3LYP) =  -393.389791385     A.U. after    1 cycles

 The electronic state is 1-A.
 Alpha  occ. eigenvalues --  -14.38707 -14.37457 -14.36825 -14.34130 -14.33805
 Alpha  occ. eigenvalues --  -10.26808 -10.22891 -10.21922  -1.03477  -0.94999
 Alpha  occ. eigenvalues --   -0.90916  -0.84045  -0.74734  -0.73181  -0.64103
 Alpha  occ. eigenvalues --   -0.56261  -0.52041  -0.51355  -0.49407  -0.48487
 Alpha  occ. eigenvalues --   -0.45623  -0.43921  -0.42890  -0.40634  -0.36550
 Alpha  occ. eigenvalues --   -0.34084  -0.33569  -0.31091  -0.28004  -0.25701
 Alpha  occ. eigenvalues --   -0.22251
 Alpha virt. eigenvalues --    0.01403   0.03128   0.06478   0.08549   0.09715
 Alpha virt. eigenvalues --    0.11633   0.12497   0.13614   0.14898   0.15212
 Alpha virt. eigenvalues --    0.17113   0.18096   0.18647   0.20404   0.20868

 Mulliken charges:
               1
     1  C   -0.295218
     2  N   -0.077734
     3  N   -0.245390
     4  N   -0.434244
     5  N   -0.268209
     6  C   -0.232254
     7  C    0.245804
     8  N   -0.292328
     9  H    0.127464
    10  H    0.115092
    11  H    0.121273
    12  H    0.243380
    13  H    0.241406
    14  H    0.217399
    15  H    0.228524
    16  H    0.166253
    17  H    0.138783
 Sum of Mulliken charges =   0.00000

 Dipole moment (field-independent basis, Debye):
    X=             -2.5786    Y=              2.3481    Z=              2.0591  Tot=              4.0500
 Quadrupole moment (field-independent basis, Debye-Ang):
   XX=            -65.4240   YY=            -46.9428   ZZ=            -46.6521
   XY=             -0.8230   XZ=              0.1186   YZ=             -1.7175

  Exact polarizability:  91.915  -0.254  59.261  -6.001  -0.569  55.009
 Approx polarizability: 122.573  -1.462  84.197 -13.481   0.935  85.700

                      1                      2                      3
                      A                      A                      A
 Frequencies --     44.4905                57.6693               123.5888
 Red. masses --      3.8231                 3.3424                 2.8624
 Frc consts  --      0.0045                 0.0065                 0.0258
 IR Inten    --      1.3466                 7.4297                 2.4442

                      4                      5                      6
                      A                      A                      A
 Frequencies --    132.2937               254.3479               258.0575
 Red. masses --      4.2209                 3.9316                 1.0764
 Frc consts  --      0.0435                 0.1499                 0.0422
 IR Inten    --      3.6233                 4.2686                 0.2268

                      7                      8                      9
                      A                      A                      A
 Frequencies --    337.1546               372.8974               397.3386
 Red. masses --      1.9282                 2.4620                 2.4838
 Frc consts  --      0.1291                 0.2017                 0.2310
 IR Inten    --     16.3086                 3.4779                10.2278

                     10                     11                     12
                      A                      A                      A
 Frequencies --    433.9770               480.0369               492.3804
 Red. masses --      3.8916                 3.8300                 2.2219
 Frc consts  --      0.4318                 0.5200                 0.3174
 IR Inten    --      3.0544                 5.8886                16.6391

                     13                     14                     15
                      A                      A                      A
 Frequencies --    603.9689               789.3590               821.3775
 Red. masses --      4.0775                 2.9393                 1.9017
 Frc consts  --      0.8763                 1.0791                 0.7559
 IR Inten    --     10.9321                60.7476                20.6025

                     16                     17                     18
                      A                      A                      A
 Frequencies --    901.9361               941.2613               969.7005
 Red. masses --      3.0026                 2.6877                 2.2593
 Frc consts  --      1.4391                 1.4030                 1.2517
 IR Inten    --    134.6708                23.4061                23.4767

                     19                     20                     21
                      A                      A                      A
 Frequencies --   1003.5031              1058.6272              1112.5367
 Red. masses --      1.8673                 1.6114                 2.6692
 Frc consts  --      1.1079                 1.0640                 1.9465
 IR Inten    --     36.8654                 9.3721                27.3966

                     22                     23                     24
                      A                      A                      A
 Frequencies --   1120.2699              1174.4952              1201.6274
 Red. masses --      2.3702                 1.6354                 1.8337
 Frc consts  --      1.7526                 1.3292                 1.5599
 IR Inten    --     15.3404                 1.9298                 3.7152

                     25                     26                     27
                      A                      A                      A
 Frequencies --   1222.3811              1260.1597              1346.6752
 Red. masses --      1.8719                 1.3509                 1.3520
 Frc consts  --      1.6480                 1.2640                 1.4447
 IR Inten    --     10.3945                 6.0605                15.5431

                     28                     29                     30
                      A                      A                      A
 Frequencies --   1362.2759              1438.7040              1475.8213
 Red. masses --      1.3482                 1.1870                 1.0552
 Frc consts  --      1.4741                 1.4476                 1.3541
 IR Inten    --     17.4509                 0.2608                 3.4732

                     31                     32                     33
                      A                      A                      A
 Frequencies --   1487.4874              1490.9850              1503.9914
 Red. masses --      1.0652                 1.0894                 1.1136
 Frc consts  --      1.3887                 1.4268                 1.4841
 IR Inten    --      6.6318                 5.1812                 6.6421

                     34                     35                     36
                      A                      A                      A
 Frequencies --   1516.2432              1685.7620              2369.8821
 Red. masses --      1.1492                 1.0656                12.6238
 Frc consts  --      1.5566                 1.7842                41.7728
 IR Inten    --      7.9647                16.4157                 2.3206

                     37                     38                     39
                      A                      A                      A
 Frequencies --   2975.3890              2984.2320              3084.3998
 Red. masses --      1.0710                 1.0480                 1.0858
 Frc consts  --      5.5863                 5.4987                 6.0860
 IR Inten    --     27.3198                46.1930                22.4985

                     40                     41                     42
                      A                      A                      A
 Frequencies --   3084.7187              3117.7800              3413.8815
 Red. masses --      1.0871                 1.1025                 1.0528
 Frc consts  --      6.0945                 6.3143                 7.2291
 IR Inten    --      6.5561                22.4040                12.2898

                     43                     44                     45
                      A                      A                      A
 Frequencies --   3414.7914              3493.0147              3544.4359
 Red. masses --      1.0739                 1.0757                 1.0867
 Frc consts  --      7.3777                 7.7329                 8.0438
 IR Inten    --      4.7498                 6.3404                 1.3372

 - Thermochemistry -
 -------------------
 Temperature   298.150 Kelvin.  Pressure   1.00000 Atm.
 Atom     1 has atomic number  6 and mass  12.00000

 Molecular mass:   115.08580 amu.
 Principal axes and moments of inertia in atomic units:
                           1         2         3
     Eigenvalues --   355.664662018.039792202.40001
           X            1.00000  -0.00202  -0.00024
           Y            0.00201   0.99974  -0.02268
           Z            0.00028   0.02268   0.99974
 This molecule is an asymmetric top.
 Rotational symmetry number  1.
 Rotational temperatures (Kelvin)      0.24353     0.04292     0.03933
 Rotational constants (GHZ):           5.07428     0.89430     0.81944
 Zero-point vibrational energy     372971.1 (Joules/Mol)
                                   89.14224 (Kcal/Mol)
 Warning -- explicit consideration of  13 degrees of freedom as
           vibrations may cause significant error
 Vibrational temperatures:     64.01    82.97   177.82   190.34   365.95
          (Kelvin)            371.29   485.09   536.52   571.68   624.40
                              690.67   708.43   868.98  1135.71  1181.78
                             1297.68  1354.27  1395.18  1443.82  1523.13
                             1600.69  1611.82  1689.84  1728.87  1758.73
                             1813.09  1937.57  1960.01  2069.97  2123.38
                             2140.16  2145.19  2163.91  2181.54  2425.44
                             3409.73  4280.92  4293.64  4437.76  4438.22
                             4485.79  4911.81  4913.12  5025.67  5099.65

 Zero-point correction=                           0.142057 (Hartree/Particle)
 Thermal correction to Energy=                    0.151328
 Thermal correction to Enthalpy=                  0.152272
 Thermal correction to Gibbs Free Energy=         0.107051
 Sum of electronic and zero-point Energies=           -393.247734
 Sum of electronic and thermal Energies=              -393.238463
 Sum of electronic and thermal Enthalpies=            -393.237519
 Sum of electronic and thermal Free Energies=         -393.282740

                     E (Thermal)             CV                S
                      KCal/Mol        Cal/Mol-Kelvin    Cal/Mol-Kelvin
 Total                   94.960             32.268             95.176
 Electronic               0.000              0.000              0.000
 Translational            0.889              2.981             40.137
 Rotational               0.889              2.981             28.849
 Vibrational             93.182             26.307             26.190
 Vibration     1          0.595              1.980              5.048
 Vibration     2          0.596              1.974              4.535
 Vibration     3          0.610              1.929              3.043
 Vibration     4          0.612              1.921              2.912
 Vibration     5          0.665              1.755              1.700
 Vibration     6          0.667              1.749              1.675
 Vibration     7          0.718              1.601              1.226
 Vibration     8          0.744              1.528              1.068
 Vibration     9          0.764              1.476              0.972
 Vibration    10          0.795              1.396              0.846
 Vibration    11          0.836              1.294              0.710
 Vibration    12          0.848              1.267              0.677
 Vibration    13          0.962              1.023              0.443

 Optimization completed.
    -- Stationary point found.
 Normal termination of Gaussian 16 at Tue Jun  1 08:54:59 2021.
