 Gaussian 16, Revision A.03,
 Gaussian 16:  ES64L-G16RevA.03 25-Dec-2016

 -----------------------------
 # opt freq b3lyp/6-31g(2df,p)
 -----------------------------

 -------------------
 Title Card Required
 -------------------
 Symbolic Z-matrix:
 Charge =  0 Multiplicity = 1

 SCF Done:  E(RB3LYP) =  -464.709718476     A.U. after   15 cycles
 SCF Done:  E(RB3LYP) =  -464.717175114     A.U. after   14 cycles
 SCF Done:  E(RB3LYP) =  -464.720899974     A.U. after   14 cycles
 SCF Done:  E(RB3LYP) =  -464.723611423     A.U. after   15 cycles
 SCF Done:  E(RB3LYP) =  -464.728861305     A.U. after   16 cycles
 SCF Done:  E(RB3LYP) =  -464.731775850     A.U. after   14 cycles
 SCF Done:  E(RB3LYP) =  -464.734297669     A.U. after   14 cycles
 SCF Done:  E(RB3LYP) =  -464.736492906     A.U. after   14 cycles
 SCF Done:  E(RB3LYP) =  -464.738316791     A.U. after   14 cycles
 SCF Done:  E(RB3LYP) =  -464.739280297     A.U. after   12 cycles
 SCF Done:  E(RB3LYP) =  -464.739845235     A.U. after   13 cycles
 SCF Done:  E(RB3LYP) =  -464.739979977     A.U. after   12 cycles
 SCF Done:  E(RB3LYP) =  -464.740119652     A.U. after   11 cycles
 SCF Done:  E(RB3LYP) =  -464.740151535     A.U. after   13 cycles
 SCF Done:  E(RB3LYP) =  -464.740164226     A.U. after   11 cycles
 SCF Done:  E(RB3LYP) =  -464.740166667     A.U. after    9 cycles
 SCF Done:  E(RB3LYP) =  -464.740167194     A.U. after    8 cycles
 SCF Done:  E(RB3LYP) =  -464.740167316     A.U. after    8 cycles
 Optimization completed.
    -- Stationary point found.
 Normal termination of Gaussian 16 at Tue Jun  1 19:06:13 2021.

 ----------------------------------------------------------------------
 #N Geom=AllCheck Guess=TCheck SCRF=Check GenChk RB3LYP/6-31G(2df,p) Fr
 eq
 ----------------------------------------------------------------------

 Structure from the checkpoint file:  "CNpNdNNpNCNdN.chk"
 -------------------
 Title Card Required
 -------------------
 Charge =  0 Multiplicity = 1

                         Standard orientation:
 ---------------------------------------------------------------------
 Center     Atomic      Atomic             Coordinates (Angstroms)
 Number     Number       Type             X           Y           Z
 ---------------------------------------------------------------------
      1          6           0       -0.873693    1.912816   -0.457591
      2          7           0       -0.580476    0.825526    0.464317
      3          7           0       -1.320337   -0.329501    0.401764
      4          7           0       -2.394533   -0.214102   -0.225591
      5          7           0       -3.189096   -1.339277   -0.097822
      6          7           0        0.781237    0.602921    0.718933
      7          6           0        1.434621   -0.299449   -0.236402
      8          7           0        2.766412   -0.585984    0.299807
      9          7           0        3.656360   -0.526996   -0.561352
     10          1           0       -1.885172    2.279035   -0.271669
     11          1           0       -0.822359    1.598761   -1.510824
     12          1           0       -0.145781    2.700076   -0.266722
     13          1           0       -3.714846   -1.461345   -0.954061
     14          1           0       -2.646844   -2.169464    0.140046
     15          1           0        0.863961    0.209118    1.651784
     16          1           0        1.489067    0.166621   -1.226404
     17          1           0        0.915494   -1.267889   -0.315415
     18          1           0        4.543944   -0.763228   -0.083163
 ---------------------------------------------------------------------

 SCF Done:  E(RB3LYP) =  -464.740167316     A.U. after    1 cycles

 The electronic state is 1-A.
 Alpha  occ. eigenvalues --  -14.39088 -14.39019 -14.38711 -14.38590 -14.38050
 Alpha  occ. eigenvalues --  -14.35651 -14.35432 -10.23520 -10.20676  -1.08235
 Alpha  occ. eigenvalues --   -1.03808  -0.99293  -0.88863  -0.81146  -0.73848
 Alpha  occ. eigenvalues --   -0.69951  -0.61401  -0.58857  -0.55009  -0.51062
 Alpha  occ. eigenvalues --   -0.50693  -0.48228  -0.47864  -0.45293  -0.43412
 Alpha  occ. eigenvalues --   -0.40868  -0.40045  -0.39378  -0.37306  -0.36712
 Alpha  occ. eigenvalues --   -0.30289  -0.26322  -0.24896  -0.23705  -0.20710
 Alpha virt. eigenvalues --   -0.05014  -0.00501   0.08766   0.10278   0.10489
 Alpha virt. eigenvalues --    0.12119   0.13217   0.14431   0.15261   0.16231
 Alpha virt. eigenvalues --    0.17650   0.18548   0.20175   0.21323   0.23086

 Mulliken charges:
               1
     1  C   -0.307600
     2  N    0.002193
     3  N   -0.102626
     4  N   -0.108129
     5  N   -0.400402
     6  N   -0.274380
     7  C   -0.037650
     8  N   -0.119325
     9  N   -0.269730
    10  H    0.146423
    11  H    0.115306
    12  H    0.139264
    13  H    0.255121
    14  H    0.232907
    15  H    0.244163
    16  H    0.117103
    17  H    0.119524
    18  H    0.247836
 Sum of Mulliken charges =  -0.00000

 Dipole moment (field-independent basis, Debye):
    X=              0.1671    Y=             -1.2678    Z=             -1.0160  Tot=              1.6333
 Quadrupole moment (field-independent basis, Debye-Ang):
   XX=            -50.8984   YY=            -48.4512   ZZ=            -53.8477
   XY=              1.5029   XZ=              5.9893   YZ=              0.7323

  Exact polarizability: 116.523  10.130  71.214   4.494  -1.164  55.809
 Approx polarizability: 158.942  19.827 102.261   9.711   1.318  91.798

                      1                      2                      3
                      A                      A                      A
 Frequencies --     43.9288                64.8019               102.6152
 Red. masses --      3.2623                 5.5808                 4.6366
 Frc consts  --      0.0037                 0.0138                 0.0288
 IR Inten    --      0.3489                 0.1943                 4.5155

                      4                      5                      6
                      A                      A                      A
 Frequencies --    135.0204               187.3804               203.4075
 Red. masses --      3.1497                 1.3391                 3.4148
 Frc consts  --      0.0338                 0.0277                 0.0832
 IR Inten    --      2.1600                 5.2428                 6.5381

                      7                      8                      9
                      A                      A                      A
 Frequencies --    235.9769               276.9545               340.5157
 Red. masses --      1.7059                 3.7301                 5.3021
 Frc consts  --      0.0560                 0.1686                 0.3622
 IR Inten    --     13.9570                 7.2963                12.3169

                     10                     11                     12
                      A                      A                      A
 Frequencies --    405.3059               424.4818               469.8142
 Red. masses --      2.4080                 2.0153                 3.5670
 Frc consts  --      0.2331                 0.2139                 0.4639
 IR Inten    --      8.6710                22.6240                29.7148

                     13                     14                     15
                      A                      A                      A
 Frequencies --    538.0521               573.4817               648.6933
 Red. masses --      3.3093                 3.5844                 4.5276
 Frc consts  --      0.5645                 0.6946                 1.1225
 IR Inten    --     43.7881                41.1166                17.3568

                     16                     17                     18
                      A                      A                      A
 Frequencies --    783.2377               797.5370               861.3452
 Red. masses --      1.7239                 1.5325                 1.2201
 Frc consts  --      0.6231                 0.5743                 0.5334
 IR Inten    --    375.3172                63.0584                41.2628

                     19                     20                     21
                      A                      A                      A
 Frequencies --    895.6529               986.2907              1056.5520
 Red. masses --      4.1137                 3.4013                 2.0932
 Frc consts  --      1.9443                 1.9494                 1.3767
 IR Inten    --      9.8111                 9.7474                29.2555

                     22                     23                     24
                      A                      A                      A
 Frequencies --   1111.5531              1124.2664              1142.9750
 Red. masses --      1.7388                 2.7405                 1.5847
 Frc consts  --      1.2658                 2.0409                 1.2198
 IR Inten    --     70.6796                28.4625                 7.6002

                     25                     26                     27
                      A                      A                      A
 Frequencies --   1154.7880              1201.0633              1225.1723
 Red. masses --      2.8585                 1.5384                 1.5797
 Frc consts  --      2.2459                 1.3075                 1.3970
 IR Inten    --      7.0471                 1.9525                10.5494

                     28                     29                     30
                      A                      A                      A
 Frequencies --   1314.1214              1344.3019              1362.8132
 Red. masses --      1.9123                 2.7397                 1.3214
 Frc consts  --      1.9457                 2.9171                 1.4459
 IR Inten    --      2.5514                 4.7779                 8.8448

                     31                     32                     33
                      A                      A                      A
 Frequencies --   1431.0794              1474.8851              1492.0897
 Red. masses --      1.1681                 1.0579                 1.1608
 Frc consts  --      1.4095                 1.3559                 1.5227
 IR Inten    --      0.8886                 9.7417                14.1363

                     34                     35                     36
                      A                      A                      A
 Frequencies --   1498.8022              1505.2934              1507.6351
 Red. masses --      1.1753                 1.0865                 1.1784
 Frc consts  --      1.5556                 1.4505                 1.5781
 IR Inten    --     15.2960                10.6240                 6.8698

                     37                     38                     39
                      A                      A                      A
 Frequencies --   1585.8448              1631.3044              1663.2844
 Red. masses --      6.1368                 1.1473                10.2926
 Frc consts  --      9.0931                 1.7988                16.7767
 IR Inten    --      0.4839                27.0300                 5.5510

                     40                     41                     42
                      A                      A                      A
 Frequencies --   2979.8575              2996.9931              3067.7617
 Red. masses --      1.0614                 1.0537                 1.0983
 Frc consts  --      5.5528                 5.5764                 6.0902
 IR Inten    --     20.9917                35.2934                19.8680

                     43                     44                     45
                      A                      A                      A
 Frequencies --   3103.4682              3166.6416              3246.3511
 Red. masses --      1.0795                 1.1031                 1.0739
 Frc consts  --      6.1261                 6.5169                 6.6678
 IR Inten    --     17.8119                 5.9336                28.8749

                     46                     47                     48
                      A                      A                      A
 Frequencies --   3443.1358              3513.0772              3608.9402
 Red. masses --      1.0500                 1.0740                 1.0925
 Frc consts  --      7.3344                 7.8097                 8.3839
 IR Inten    --      0.6479                 4.1399                15.2683

 - Thermochemistry -
 -------------------
 Temperature   298.150 Kelvin.  Pressure   1.00000 Atm.
 Atom     1 has atomic number  6 and mass  12.00000

 Molecular mass:   131.09194 amu.
 Principal axes and moments of inertia in atomic units:
                           1         2         3
     Eigenvalues --   534.944562386.759602708.57237
           X            0.99998   0.00198   0.00637
           Y           -0.00184   0.99973  -0.02296
           Z           -0.00642   0.02295   0.99972
 This molecule is an asymmetric top.
 Rotational symmetry number  1.
 Warning -- assumption of classical behavior for rotation
           may cause significant error
 Rotational temperatures (Kelvin)      0.16191     0.03629     0.03198
 Rotational constants (GHZ):           3.37370     0.75615     0.66631
 Zero-point vibrational energy     382377.6 (Joules/Mol)
                                   91.39044 (Kcal/Mol)
 Warning -- explicit consideration of  14 degrees of freedom as
           vibrations may cause significant error
 Vibrational temperatures:     63.20    93.24   147.64   194.26   269.60
          (Kelvin)            292.66   339.52   398.48   489.93   583.14
                              610.73   675.96   774.14   825.11   933.32
                             1126.90  1147.48  1239.28  1288.64  1419.05
                             1520.14  1599.28  1617.57  1644.49  1661.48
                             1728.06  1762.75  1890.73  1934.15  1960.78
                             2059.00  2122.03  2146.78  2156.44  2165.78
                             2169.15  2281.68  2347.08  2393.10  4287.35
                             4312.00  4413.82  4465.20  4556.09  4670.78
                             4953.90  5054.53  5192.46

 Zero-point correction=                           0.145640 (Hartree/Particle)
 Thermal correction to Energy=                    0.155870
 Thermal correction to Enthalpy=                  0.156814
 Thermal correction to Gibbs Free Energy=         0.109240
 Sum of electronic and zero-point Energies=           -464.594527
 Sum of electronic and thermal Energies=              -464.584297
 Sum of electronic and thermal Enthalpies=            -464.583353
 Sum of electronic and thermal Free Energies=         -464.630927

                     E (Thermal)             CV                S
                      KCal/Mol        Cal/Mol-Kelvin    Cal/Mol-Kelvin
 Total                   97.810             35.465            100.128
 Electronic               0.000              0.000              0.000
 Translational            0.889              2.981             40.525
 Rotational               0.889              2.981             29.626
 Vibrational             96.033             29.503             29.977
 Vibration     1          0.595              1.980              5.074
 Vibration     2          0.597              1.971              4.305
 Vibration     3          0.605              1.947              3.404
 Vibration     4          0.613              1.918              2.873
 Vibration     5          0.632              1.857              2.254
 Vibration     6          0.639              1.835              2.102
 Vibration     7          0.655              1.786              1.833
 Vibration     8          0.678              1.716              1.552
 Vibration     9          0.720              1.595              1.210
 Vibration    10          0.770              1.459              0.943
 Vibration    11          0.786              1.417              0.877
 Vibration    12          0.827              1.317              0.738
 Vibration    13          0.893              1.166              0.569
 Vibration    14          0.930              1.089              0.498

                           ! Non-Optimized Parameters !
 Normal termination of Gaussian 16 at Tue Jun  1 19:30:10 2021.
