 Gaussian 16, Revision A.03,
 Gaussian 16:  ES64L-G16RevA.03 25-Dec-2016

 -----------------------------
 # opt freq b3lyp/6-31g(2df,p)
 -----------------------------

 -------------------
 Title Card Required
 -------------------
 Symbolic Z-matrix:
 Charge =  0 Multiplicity = 1

 SCF Done:  E(RB3LYP) =  -431.474159828     A.U. after   15 cycles
 SCF Done:  E(RB3LYP) =  -431.485198575     A.U. after   12 cycles
 SCF Done:  E(RB3LYP) =  -431.487472155     A.U. after   12 cycles
 SCF Done:  E(RB3LYP) =  -431.488354482     A.U. after   13 cycles
 SCF Done:  E(RB3LYP) =  -431.489053418     A.U. after   13 cycles
 SCF Done:  E(RB3LYP) =  -431.489396901     A.U. after   16 cycles
 SCF Done:  E(RB3LYP) =  -431.490073886     A.U. after   13 cycles
 SCF Done:  E(RB3LYP) =  -431.490849130     A.U. after   13 cycles
 SCF Done:  E(RB3LYP) =  -431.488398981     A.U. after   14 cycles
 SCF Done:  E(RB3LYP) =  -431.492275267     A.U. after   13 cycles
 SCF Done:  E(RB3LYP) =  -431.503097820     A.U. after   13 cycles
 SCF Done:  E(RB3LYP) =  -431.503780080     A.U. after   15 cycles
 SCF Done:  E(RB3LYP) =  -431.504303004     A.U. after   12 cycles
 SCF Done:  E(RB3LYP) =  -431.504448769     A.U. after   13 cycles
 SCF Done:  E(RB3LYP) =  -431.504485672     A.U. after   11 cycles
 SCF Done:  E(RB3LYP) =  -431.504498220     A.U. after   11 cycles
 SCF Done:  E(RB3LYP) =  -431.504501646     A.U. after   10 cycles
 SCF Done:  E(RB3LYP) =  -431.504503104     A.U. after    9 cycles
 SCF Done:  E(RB3LYP) =  -431.504503629     A.U. after    9 cycles
 Optimization completed.
    -- Stationary point found.
 Normal termination of Gaussian 16 at Tue Jun  1 16:48:37 2021.

 ----------------------------------------------------------------------
 #N Geom=AllCheck Guess=TCheck SCRF=Check GenChk RB3LYP/6-31G(2df,p) Fr
 eq
 ----------------------------------------------------------------------

 Structure from the checkpoint file:  "CNpNpNCNdCCtN.chk"
 -------------------
 Title Card Required
 -------------------
 Charge =  0 Multiplicity = 1

                         Standard orientation:
 ---------------------------------------------------------------------
 Center     Atomic      Atomic             Coordinates (Angstroms)
 Number     Number       Type             X           Y           Z
 ---------------------------------------------------------------------
      1          6           0        2.950613   -1.125966   -0.236673
      2          7           0        2.302776    0.091931    0.234611
      3          7           0        3.128382    1.200118   -0.097797
      4          7           0        0.985112    0.244297   -0.298256
      5          6           0       -0.001259   -0.334412    0.607463
      6          7           0       -1.273443   -0.362350   -0.084598
      7          6           0       -2.279902    0.125205    0.510374
      8          6           0       -3.580959    0.107167   -0.106969
      9          7           0       -4.646723    0.116735   -0.556276
     10          1           0        3.936531   -1.205500    0.223278
     11          1           0        3.074251   -1.135417   -1.335950
     12          1           0        2.350851   -1.993758    0.052045
     13          1           0        2.757937    1.996994    0.412413
     14          1           0        3.010180    1.425506   -1.091367
     15          1           0        0.900807   -0.212493   -1.211095
     16          1           0       -0.015026    0.257452    1.534387
     17          1           0        0.224818   -1.380863    0.879393
     18          1           0       -2.244035    0.580996    1.507930
 ---------------------------------------------------------------------

 SCF Done:  E(RB3LYP) =  -431.504503629     A.U. after    1 cycles

 The electronic state is 1-A.
 Alpha  occ. eigenvalues --  -14.38125 -14.37101 -14.35296 -14.35157 -14.34054
 Alpha  occ. eigenvalues --  -10.28438 -10.25639 -10.23727 -10.21130  -1.01861
 Alpha  occ. eigenvalues --   -0.96942  -0.91735  -0.87766  -0.78027  -0.73224
 Alpha  occ. eigenvalues --   -0.65471  -0.63068  -0.54626  -0.54193  -0.51260
 Alpha  occ. eigenvalues --   -0.49209  -0.46957  -0.46671  -0.42796  -0.41029
 Alpha  occ. eigenvalues --   -0.40021  -0.39106  -0.37666  -0.35071  -0.32279
 Alpha  occ. eigenvalues --   -0.29852  -0.27797  -0.24801  -0.24180
 Alpha virt. eigenvalues --   -0.07768   0.01595   0.06815   0.09374   0.09597
 Alpha virt. eigenvalues --    0.10440   0.12033   0.13264   0.14448   0.15481
 Alpha virt. eigenvalues --    0.16050   0.16589   0.17724   0.18410   0.20883

 Mulliken charges:
               1
     1  C   -0.292930
     2  N   -0.064239
     3  N   -0.432695
     4  N   -0.277743
     5  C   -0.064221
     6  N   -0.148199
     7  C   -0.086147
     8  C    0.274257
     9  N   -0.297458
    10  H    0.144015
    11  H    0.095481
    12  H    0.121585
    13  H    0.241315
    14  H    0.212843
    15  H    0.212090
    16  H    0.109670
    17  H    0.112793
    18  H    0.139583
 Sum of Mulliken charges =  -0.00000

 Dipole moment (field-independent basis, Debye):
    X=              2.5916    Y=             -0.1313    Z=              1.3159  Tot=              2.9095
 Quadrupole moment (field-independent basis, Debye-Ang):
   XX=            -76.3110   YY=            -50.1053   ZZ=            -51.2195
   XY=             -2.0666   XZ=            -10.0958   YZ=              0.2529

  Exact polarizability: 123.451  -3.304  62.077   2.347   1.947  62.676
 Approx polarizability: 164.817  -7.560  91.301   7.175   4.370  99.261

                      1                      2                      3
                      A                      A                      A
 Frequencies --     37.7385                60.0092                95.1994
 Red. masses --      4.2224                 4.5931                 3.3837
 Frc consts  --      0.0035                 0.0097                 0.0181
 IR Inten    --      3.9823                 3.3627                 9.8746

                      4                      5                      6
                      A                      A                      A
 Frequencies --    132.5296               193.3902               212.2854
 Red. masses --      3.9094                 4.2340                 3.7281
 Frc consts  --      0.0405                 0.0933                 0.0990
 IR Inten    --     11.2750                 2.2477                 3.1754

                      7                      8                      9
                      A                      A                      A
 Frequencies --    263.5219               296.2528               328.2691
 Red. masses --      1.1486                 1.1337                 3.8194
 Frc consts  --      0.0470                 0.0586                 0.2425
 IR Inten    --      9.7797                22.2893                 9.9307

                     10                     11                     12
                      A                      A                      A
 Frequencies --    392.5901               434.8753               476.3632
 Red. masses --      3.5810                 2.6312                 3.2117
 Frc consts  --      0.3252                 0.2932                 0.4294
 IR Inten    --      2.8342                 4.7426                 6.0898

                     13                     14                     15
                      A                      A                      A
 Frequencies --    496.4459               539.7563               629.5520
 Red. masses --      3.6097                 4.1397                 6.9839
 Frc consts  --      0.5242                 0.7106                 1.6308
 IR Inten    --      4.9294                 3.4321                 0.9546

                     16                     17                     18
                      A                      A                      A
 Frequencies --    794.2327               900.5405               952.4874
 Red. masses --      2.4287                 3.0777                 1.5749
 Frc consts  --      0.9026                 1.4706                 0.8418
 IR Inten    --     45.1220                55.3588                23.8797

                     19                     20                     21
                      A                      A                      A
 Frequencies --    962.2328              1000.0180              1042.4730
 Red. masses --      1.8737                 3.4731                 2.5056
 Frc consts  --      1.0221                 2.0464                 1.6043
 IR Inten    --    110.1794                21.2911                28.2651

                     22                     23                     24
                      A                      A                      A
 Frequencies --   1052.3978              1097.3670              1132.4495
 Red. masses --      2.7671                 2.3865                 1.5522
 Frc consts  --      1.8057                 1.6932                 1.1728
 IR Inten    --      2.2390                18.1808                18.7089

                     25                     26                     27
                      A                      A                      A
 Frequencies --   1169.7577              1201.8587              1238.2012
 Red. masses --      1.8407                 1.6437                 1.5041
 Frc consts  --      1.4839                 1.3989                 1.3587
 IR Inten    --     15.1151                23.0905                 5.4383

                     28                     29                     30
                      A                      A                      A
 Frequencies --   1272.9468              1350.8229              1364.8318
 Red. masses --      2.0334                 1.2436                 1.2310
 Frc consts  --      1.9413                 1.3369                 1.3510
 IR Inten    --      4.9329                11.8607                20.9678

                     31                     32                     33
                      A                      A                      A
 Frequencies --   1396.1845              1443.4087              1475.1963
 Red. masses --      1.3640                 1.1863                 1.1092
 Frc consts  --      1.5666                 1.4563                 1.4221
 IR Inten    --     35.7197                 3.5058                 6.3936

                     34                     35                     36
                      A                      A                      A
 Frequencies --   1493.0754              1501.1989              1508.2951
 Red. masses --      1.0545                 1.1585                 1.0839
 Frc consts  --      1.3850                 1.5382                 1.4528
 IR Inten    --      3.0783                23.2094                 1.4266

                     37                     38                     39
                      A                      A                      A
 Frequencies --   1680.5116              1716.3401              2351.2652
 Red. masses --      1.0781                 9.3446                12.6436
 Frc consts  --      1.7939                16.2187                41.1835
 IR Inten    --     17.3257                32.2284                 0.5005

                     40                     41                     42
                      A                      A                      A
 Frequencies --   2937.7112              2941.5421              3007.7933
 Red. masses --      1.0590                 1.0640                 1.0952
 Frc consts  --      5.3848                 5.4241                 5.8374
 IR Inten    --     67.6274                36.4368                37.7073

                     43                     44                     45
                      A                      A                      A
 Frequencies --   3040.5198              3081.8122              3141.0703
 Red. masses --      1.0857                 1.0746                 1.1012
 Frc consts  --      5.9139                 6.0130                 6.4012
 IR Inten    --     18.4388                27.2866                17.3063

                     46                     47                     48
                      A                      A                      A
 Frequencies --   3365.8401              3384.1095              3535.1665
 Red. masses --      1.0583                 1.0730                 1.0817
 Frc consts  --      7.0636                 7.2400                 7.9645
 IR Inten    --     15.4057                 6.5095                 1.0875

 - Thermochemistry -
 -------------------
 Temperature   298.150 Kelvin.  Pressure   1.00000 Atm.
 Atom     1 has atomic number  6 and mass  12.00000

 Molecular mass:   127.08580 amu.
 Principal axes and moments of inertia in atomic units:
                           1         2         3
     Eigenvalues --   286.330293384.345983492.35092
           X            0.99993  -0.00559  -0.01059
           Y            0.00586   0.99967   0.02518
           Z            0.01045  -0.02524   0.99963
 This molecule is an asymmetric top.
 Rotational symmetry number  1.
 Rotational temperatures (Kelvin)      0.30250     0.02559     0.02480
 Rotational constants (GHZ):           6.30300     0.53326     0.51677
 Zero-point vibrational energy     383537.3 (Joules/Mol)
                                   91.66763 (Kcal/Mol)
 Warning -- explicit consideration of  14 degrees of freedom as
           vibrations may cause significant error
 Vibrational temperatures:     54.30    86.34   136.97   190.68   278.25
          (Kelvin)            305.43   379.15   426.24   472.31   564.85
                              625.69   685.38   714.27   776.59   905.78
                             1142.72  1295.68  1370.42  1384.44  1438.80
                             1499.89  1514.17  1578.87  1629.34  1683.02
                             1729.21  1781.50  1831.49  1943.53  1963.69
                             2008.80  2076.74  2122.48  2148.20  2159.89
                             2170.10  2417.88  2469.43  3382.95  4226.71
                             4232.22  4327.54  4374.63  4434.04  4519.30
                             4842.69  4868.98  5086.32

 Zero-point correction=                           0.146082 (Hartree/Particle)
 Thermal correction to Energy=                    0.156286
 Thermal correction to Enthalpy=                  0.157231
 Thermal correction to Gibbs Free Energy=         0.109571
 Sum of electronic and zero-point Energies=           -431.358422
 Sum of electronic and thermal Energies=              -431.348217
 Sum of electronic and thermal Enthalpies=            -431.347273
 Sum of electronic and thermal Free Energies=         -431.394932

                     E (Thermal)             CV                S
                      KCal/Mol        Cal/Mol-Kelvin    Cal/Mol-Kelvin
 Total                   98.071             35.253            100.307
 Electronic               0.000              0.000              0.000
 Translational            0.889              2.981             40.432
 Rotational               0.889              2.981             29.605
 Vibrational             96.294             29.292             30.270
 Vibration     1          0.594              1.982              5.374
 Vibration     2          0.597              1.973              4.457
 Vibration     3          0.603              1.953              3.550
 Vibration     4          0.613              1.921              2.909
 Vibration     5          0.635              1.849              2.195
 Vibration     6          0.643              1.822              2.024
 Vibration     7          0.670              1.740              1.638
 Vibration     8          0.690              1.681              1.438
 Vibration     9          0.711              1.619              1.269
 Vibration    10          0.760              1.486              0.990
 Vibration    11          0.795              1.394              0.843
 Vibration    12          0.833              1.302              0.720
 Vibration    13          0.852              1.258              0.667
 Vibration    14          0.895              1.162              0.566

 Optimization completed.
    -- Stationary point found.
 Normal termination of Gaussian 16 at Tue Jun  1 17:09:05 2021.
