 Gaussian 16, Revision A.03,
 Gaussian 16:  ES64L-G16RevA.03 25-Dec-2016

 -----------------------------
 # opt freq b3lyp/6-31g(2df,p)
 -----------------------------

 -------------------
 Title Card Required
 -------------------
 Symbolic Z-matrix:
 Charge =  0 Multiplicity = 1

 SCF Done:  E(RB3LYP) =  -338.019751460     A.U. after   14 cycles
 SCF Done:  E(RB3LYP) =  -338.048715127     A.U. after   12 cycles
 SCF Done:  E(RB3LYP) =  -338.051182953     A.U. after   12 cycles
 SCF Done:  E(RB3LYP) =  -338.051802151     A.U. after   11 cycles
 SCF Done:  E(RB3LYP) =  -338.051889734     A.U. after   10 cycles
 SCF Done:  E(RB3LYP) =  -338.051996123     A.U. after   11 cycles
 SCF Done:  E(RB3LYP) =  -338.052071709     A.U. after   11 cycles
 SCF Done:  E(RB3LYP) =  -338.052203282     A.U. after   10 cycles
 SCF Done:  E(RB3LYP) =  -338.051345966     A.U. after   14 cycles
 SCF Done:  E(RB3LYP) =  -338.054229383     A.U. after   13 cycles
 SCF Done:  E(RB3LYP) =  -338.061190317     A.U. after   11 cycles
 SCF Done:  E(RB3LYP) =  -338.061809971     A.U. after   11 cycles
 SCF Done:  E(RB3LYP) =  -338.062137948     A.U. after   10 cycles
 SCF Done:  E(RB3LYP) =  -338.062407031     A.U. after   11 cycles
 SCF Done:  E(RB3LYP) =  -338.062552572     A.U. after   11 cycles
 SCF Done:  E(RB3LYP) =  -338.062616819     A.U. after   11 cycles
 SCF Done:  E(RB3LYP) =  -338.062627631     A.U. after   10 cycles
 SCF Done:  E(RB3LYP) =  -338.062629284     A.U. after    8 cycles
 SCF Done:  E(RB3LYP) =  -338.062629558     A.U. after    7 cycles
 Optimization completed.
    -- Stationary point found.
 Normal termination of Gaussian 16 at Mon May 31 22:33:31 2021.

 ----------------------------------------------------------------------
 #N Geom=AllCheck Guess=TCheck SCRF=Check GenChk RB3LYP/6-31G(2df,p) Fr
 eq
 ----------------------------------------------------------------------

 Structure from the checkpoint file:  "CNpNpNCCtN.chk"
 -------------------
 Title Card Required
 -------------------
 Charge =  0 Multiplicity = 1

                         Standard orientation:
 ---------------------------------------------------------------------
 Center     Atomic      Atomic             Coordinates (Angstroms)
 Number     Number       Type             X           Y           Z
 ---------------------------------------------------------------------
      1          6           0        2.263661   -1.033581   -0.023246
      2          7           0        1.308932    0.010539    0.345417
      3          7           0        1.608996    1.252355   -0.287405
      4          7           0        0.010483   -0.383389   -0.203485
      5          6           0       -1.014965    0.439288    0.453332
      6          6           0       -2.347354    0.027167    0.014893
      7          7           0       -3.403703   -0.308831   -0.309969
      8          1           0        3.256713   -0.725138    0.310668
      9          1           0        2.281492   -1.213979   -1.111228
     10          1           0        2.008041   -1.967889    0.487854
     11          1           0        1.948719    1.095867   -1.241387
     12          1           0        2.348408    1.688693    0.252996
     13          1           0       -0.122919   -1.343783    0.107838
     14          1           0       -0.837291    1.477794    0.159281
     15          1           0       -0.964168    0.396476    1.552199
 ---------------------------------------------------------------------

 SCF Done:  E(RB3LYP) =  -338.062629558     A.U. after    1 cycles

 The electronic state is 1-A.
 Alpha  occ. eigenvalues --  -14.39000 -14.36233 -14.35196 -14.32556 -10.24844
 Alpha  occ. eigenvalues --  -10.22035 -10.21741  -1.02159  -0.90621  -0.88420
 Alpha  occ. eigenvalues --   -0.79335  -0.71616  -0.64848  -0.54114  -0.52451
 Alpha  occ. eigenvalues --   -0.50555  -0.46876  -0.46043  -0.43763  -0.41758
 Alpha  occ. eigenvalues --   -0.40283  -0.35391  -0.33427  -0.32801  -0.31157
 Alpha  occ. eigenvalues --   -0.27105  -0.21803
 Alpha virt. eigenvalues --    0.02640   0.04449   0.06354   0.09861   0.11210
 Alpha virt. eigenvalues --    0.12633   0.13346   0.13912   0.16209   0.16964
 Alpha virt. eigenvalues --    0.18115   0.19384   0.19730   0.23040   0.24648

 Mulliken charges:
               1
     1  C   -0.306302
     2  N   -0.093301
     3  N   -0.426202
     4  N   -0.268801
     5  C   -0.231358
     6  C    0.249811
     7  N   -0.304200
     8  H    0.127421
     9  H    0.113493
    10  H    0.126246
    11  H    0.220478
    12  H    0.245240
    13  H    0.235601
    14  H    0.175077
    15  H    0.136796
 Sum of Mulliken charges =  -0.00000

 Dipole moment (field-independent basis, Debye):
    X=              5.1840    Y=              0.0600    Z=              1.0791  Tot=              5.2955
 Quadrupole moment (field-independent basis, Debye-Ang):
   XX=            -50.9226   YY=            -39.2766   ZZ=            -42.5743
   XY=             -1.5172   XZ=             -4.2042   YZ=             -0.7616

  Exact polarizability:  81.190   3.547  54.709   0.577   0.300  46.960
 Approx polarizability: 107.866  10.784  80.179   5.291   1.675  72.317

                      1                      2                      3
                      A                      A                      A
 Frequencies --     62.4383               121.3685               136.3761
 Red. masses --      3.9778                 2.6084                 4.6651
 Frc consts  --      0.0091                 0.0226                 0.0511
 IR Inten    --      3.5520                10.0188                 4.6349

                      4                      5                      6
                      A                      A                      A
 Frequencies --    265.9472               297.7652               316.5771
 Red. masses --      1.3277                 2.5994                 1.1846
 Frc consts  --      0.0553                 0.1358                 0.0699
 IR Inten    --      2.1130                 5.2975                43.5500

                      7                      8                      9
                      A                      A                      A
 Frequencies --    395.2562               399.9077               489.1058
 Red. masses --      3.6008                 2.9498                 2.6803
 Frc consts  --      0.3314                 0.2779                 0.3778
 IR Inten    --      1.7141                 2.2152                 4.9452

                     10                     11                     12
                      A                      A                      A
 Frequencies --    526.6758               565.6961               836.0649
 Red. masses --      3.4478                 4.4283                 3.5149
 Frc consts  --      0.5635                 0.8349                 1.4476
 IR Inten    --      1.3427                 1.8537                 8.8495

                     13                     14                     15
                      A                      A                      A
 Frequencies --    852.3696               920.9951               975.1978
 Red. masses --      1.7735                 2.6009                 2.4010
 Frc consts  --      0.7592                 1.2998                 1.3453
 IR Inten    --     87.8077                26.2891                 7.9158

                     16                     17                     18
                      A                      A                      A
 Frequencies --   1027.8611              1046.1986              1089.1383
 Red. masses --      1.8991                 1.7898                 2.8000
 Frc consts  --      1.1821                 1.1542                 1.9570
 IR Inten    --     19.3957                 7.3359                38.2814

                     19                     20                     21
                      A                      A                      A
 Frequencies --   1122.7106              1170.6182              1223.1806
 Red. masses --      1.6794                 1.7708                 1.5681
 Frc consts  --      1.2472                 1.4297                 1.3823
 IR Inten    --      3.3006                 4.3038                34.9327

                     22                     23                     24
                      A                      A                      A
 Frequencies --   1273.7942              1336.7138              1350.9706
 Red. masses --      1.6678                 1.2735                 1.4105
 Frc consts  --      1.5944                 1.3407                 1.5168
 IR Inten    --      2.9089                 2.9251                 4.2184

                     25                     26                     27
                      A                      A                      A
 Frequencies --   1440.2860              1474.7479              1493.4049
 Red. masses --      1.1933                 1.0683                 1.0661
 Frc consts  --      1.4584                 1.3689                 1.4009
 IR Inten    --      0.7085                 8.5079                 9.3513

                     28                     29                     30
                      A                      A                      A
 Frequencies --   1494.7032              1505.7168              1645.9946
 Red. masses --      1.0645                 1.1383                 1.0863
 Frc consts  --      1.4012                 1.5205                 1.7340
 IR Inten    --      1.2876                 8.0654                14.4676

                     31                     32                     33
                      A                      A                      A
 Frequencies --   2368.0845              2968.9719              2992.2722
 Red. masses --     12.6121                 1.0501                 1.0697
 Frc consts  --     41.6709                 5.4539                 5.6433
 IR Inten    --      6.7916                53.3265                29.5173

                     34                     35                     36
                      A                      A                      A
 Frequencies --   3073.7252              3092.9892              3124.1397
 Red. masses --      1.0853                 1.0880                 1.1002
 Frc consts  --      6.0415                 6.1326                 6.3266
 IR Inten    --     27.5170                 4.4626                16.5841

                     37                     38                     39
                      A                      A                      A
 Frequencies --   3373.4616              3484.7529              3565.4596
 Red. masses --      1.0566                 1.0743                 1.0842
 Frc consts  --      7.0844                 7.6860                 8.1205
 IR Inten    --     12.5771                 0.8149                 4.3158

 - Thermochemistry -
 -------------------
 Temperature   298.150 Kelvin.  Pressure   1.00000 Atm.
 Atom     1 has atomic number  6 and mass  12.00000

 Molecular mass:   100.07490 amu.
 Principal axes and moments of inertia in atomic units:
                           1         2         3
     Eigenvalues --   240.940141447.959951597.12929
           X            0.99986  -0.01323  -0.01035
           Y            0.01322   0.99991  -0.00046
           Z            0.01036   0.00032   0.99995
 This molecule is an asymmetric top.
 Rotational symmetry number  1.
 Rotational temperatures (Kelvin)      0.35948     0.05982     0.05423
 Rotational constants (GHZ):           7.49041     1.24640     1.12999
 Zero-point vibrational energy     328384.7 (Joules/Mol)
                                   78.48583 (Kcal/Mol)
 Warning -- explicit consideration of  11 degrees of freedom as
           vibrations may cause significant error
 Vibrational temperatures:     89.83   174.62   196.21   382.64   428.42
          (Kelvin)            455.48   568.69   575.38   703.71   757.77
                              813.91  1202.91  1226.37  1325.11  1403.09
                             1478.86  1505.25  1567.03  1615.33  1684.26
                             1759.88  1832.71  1923.23  1943.75  2072.25
                             2121.83  2148.68  2150.54  2166.39  2368.22
                             3407.15  4271.69  4305.21  4422.40  4450.12
                             4494.94  4853.66  5013.78  5129.90

 Zero-point correction=                           0.125075 (Hartree/Particle)
 Thermal correction to Energy=                    0.133038
 Thermal correction to Enthalpy=                  0.133982
 Thermal correction to Gibbs Free Energy=         0.092620
 Sum of electronic and zero-point Energies=           -337.937554
 Sum of electronic and thermal Energies=              -337.929592
 Sum of electronic and thermal Enthalpies=            -337.928648
 Sum of electronic and thermal Free Energies=         -337.970010

                     E (Thermal)             CV                S
                      KCal/Mol        Cal/Mol-Kelvin    Cal/Mol-Kelvin
 Total                   83.482             27.906             87.054
 Electronic               0.000              0.000              0.000
 Translational            0.889              2.981             39.720
 Rotational               0.889              2.981             27.812
 Vibrational             81.705             21.944             19.521
 Vibration     1          0.597              1.972              4.379
 Vibration     2          0.609              1.931              3.078
 Vibration     3          0.614              1.917              2.854
 Vibration     4          0.672              1.736              1.622
 Vibration     5          0.691              1.678              1.429
 Vibration     6          0.703              1.642              1.328
 Vibration     7          0.762              1.480              0.980
 Vibration     8          0.766              1.470              0.963
 Vibration     9          0.845              1.274              0.686
 Vibration    10          0.882              1.191              0.595
 Vibration    11          0.922              1.105              0.513

 Optimization completed.
    -- Stationary point found.
 Normal termination of Gaussian 16 at Mon May 31 22:47:22 2021.
