 Gaussian 16, Revision A.03,
 Gaussian 16:  ES64L-G16RevA.03 25-Dec-2016

 -----------------------------
 # opt freq b3lyp/6-31g(2df,p)
 -----------------------------

 -------------------
 Title Card Required
 -------------------
 Symbolic Z-matrix:
 Charge =  0 Multiplicity = 1

 SCF Done:  E(RB3LYP) =  -432.675241512     A.U. after   14 cycles
 SCF Done:  E(RB3LYP) =  -432.705556423     A.U. after   12 cycles
 SCF Done:  E(RB3LYP) =  -432.708191997     A.U. after   12 cycles
 SCF Done:  E(RB3LYP) =  -432.708804829     A.U. after   10 cycles
 SCF Done:  E(RB3LYP) =  -432.708962483     A.U. after   10 cycles
 SCF Done:  E(RB3LYP) =  -432.709368517     A.U. after   11 cycles
 SCF Done:  E(RB3LYP) =  -432.684353639     A.U. after   14 cycles
 SCF Done:  E(RB3LYP) =  -432.689954167     A.U. after   13 cycles
 SCF Done:  E(RB3LYP) =  -432.709380213     A.U. after    9 cycles
 SCF Done:  E(RB3LYP) =  -432.671506722     A.U. after   14 cycles
 SCF Done:  E(RB3LYP) =  -432.729639005     A.U. after   12 cycles
 SCF Done:  E(RB3LYP) =  -432.730653123     A.U. after   12 cycles
 SCF Done:  E(RB3LYP) =  -432.730997633     A.U. after   11 cycles
 SCF Done:  E(RB3LYP) =  -432.731070055     A.U. after   11 cycles
 SCF Done:  E(RB3LYP) =  -432.731132963     A.U. after   10 cycles
 SCF Done:  E(RB3LYP) =  -432.731153997     A.U. after   10 cycles
 SCF Done:  E(RB3LYP) =  -432.731157757     A.U. after    9 cycles
 SCF Done:  E(RB3LYP) =  -432.731158382     A.U. after    7 cycles
 SCF Done:  E(RB3LYP) =  -432.731158512     A.U. after    7 cycles
 Optimization completed.
    -- Stationary point found.
 Normal termination of Gaussian 16 at Tue Jun  1 12:52:54 2021.

 ----------------------------------------------------------------------
 #N Geom=AllCheck Guess=TCheck SCRF=Check GenChk RB3LYP/6-31G(2df,p) Fr
 eq
 ----------------------------------------------------------------------

 Structure from the checkpoint file:  "CNpNpNCNCCtN.chk"
 -------------------
 Title Card Required
 -------------------
 Charge =  0 Multiplicity = 1

                         Standard orientation:
 ---------------------------------------------------------------------
 Center     Atomic      Atomic             Coordinates (Angstroms)
 Number     Number       Type             X           Y           Z
 ---------------------------------------------------------------------
      1          6           0        1.915277   -1.568172   -0.383274
      2          7           0        1.920077   -0.269547    0.285002
      3          7           0        3.251214   -0.003331    0.720998
      4          7           0        1.435769    0.767938   -0.586255
      5          6           0        0.141248    1.252515   -0.168931
      6          7           0       -0.903783    0.220738   -0.180515
      7          6           0       -2.225473    0.767077    0.110835
      8          6           0       -3.239182   -0.290743    0.133887
      9          7           0       -4.035156   -1.126749    0.171873
     10          1           0        2.286077   -2.322919    0.311229
     11          1           0        2.561593   -1.576450   -1.280863
     12          1           0        0.895498   -1.812767   -0.688745
     13          1           0        3.190934    0.777214    1.368837
     14          1           0        3.797490    0.338821   -0.075870
     15          1           0        1.387697    0.423405   -1.544900
     16          1           0       -0.158653    2.044528   -0.866214
     17          1           0        0.261991    1.710111    0.826495
     18          1           0       -0.666360   -0.470241    0.526085
     19          1           0       -2.494111    1.483213   -0.676230
     20          1           0       -2.290222    1.317681    1.067351
 ---------------------------------------------------------------------

 SCF Done:  E(RB3LYP) =  -432.731158512     A.U. after    1 cycles

 The electronic state is 1-A.
 Alpha  occ. eigenvalues --  -14.38025 -14.35034 -14.33871 -14.33749 -14.33112
 Alpha  occ. eigenvalues --  -10.26339 -10.24695 -10.22274 -10.20772  -1.01390
 Alpha  occ. eigenvalues --   -0.93868  -0.90108  -0.86900  -0.77748  -0.73681
 Alpha  occ. eigenvalues --   -0.66293  -0.62605  -0.55432  -0.52333  -0.49871
 Alpha  occ. eigenvalues --   -0.49110  -0.48934  -0.46216  -0.45230  -0.42502
 Alpha  occ. eigenvalues --   -0.40853  -0.40137  -0.38224  -0.35915  -0.33518
 Alpha  occ. eigenvalues --   -0.32811  -0.28562  -0.25611  -0.25219  -0.23359
 Alpha virt. eigenvalues --    0.02258   0.03859   0.07575   0.08254   0.09856
 Alpha virt. eigenvalues --    0.10646   0.11611   0.13464   0.14877   0.15483
 Alpha virt. eigenvalues --    0.16314   0.17125   0.17375   0.17778   0.18833

 Mulliken charges:
               1
     1  C   -0.298578
     2  N   -0.085648
     3  N   -0.427547
     4  N   -0.276235
     5  C   -0.079817
     6  N   -0.306228
     7  C   -0.261333
     8  C    0.259946
     9  N   -0.297427
    10  H    0.141881
    11  H    0.096378
    12  H    0.133324
    13  H    0.238036
    14  H    0.212242
    15  H    0.214585
    16  H    0.107992
    17  H    0.097502
    18  H    0.241019
    19  H    0.155508
    20  H    0.134400
 Sum of Mulliken charges =  -0.00000

 Dipole moment (field-independent basis, Debye):
    X=              2.5980    Y=              3.0295    Z=             -0.5900  Tot=              4.0343
 Quadrupole moment (field-independent basis, Debye-Ang):
   XX=            -70.8449   YY=            -54.2947   ZZ=            -52.8811
   XY=             -8.3456   XZ=             -2.6504   YZ=              1.6034

  Exact polarizability: 100.252   4.158  76.105   0.483   0.820  62.710
 Approx polarizability: 124.627  12.424 113.798   0.618  -0.746  97.165

                      1                      2                      3
                      A                      A                      A
 Frequencies --     39.8459                61.9438                83.4521
 Red. masses --      4.2006                 3.4829                 3.8480
 Frc consts  --      0.0039                 0.0079                 0.0158
 IR Inten    --      1.3477                 5.5845                 3.2505

                      4                      5                      6
                      A                      A                      A
 Frequencies --    128.8340               150.4432               262.5770
 Red. masses --      2.7054                 3.8969                 1.4921
 Frc consts  --      0.0265                 0.0520                 0.0606
 IR Inten    --      5.1538                 4.9733                 3.0209

                      7                      8                      9
                      A                      A                      A
 Frequencies --    271.8893               290.6687               297.7487
 Red. masses --      1.3951                 1.1884                 4.8001
 Frc consts  --      0.0608                 0.0592                 0.2507
 IR Inten    --     16.4660                20.8460                 0.2184

                     10                     11                     12
                      A                      A                      A
 Frequencies --    374.7735               393.0715               442.0164
 Red. masses --      3.4317                 3.6541                 2.3920
 Frc consts  --      0.2840                 0.3326                 0.2754
 IR Inten    --      3.2924                 1.5205                 1.9218

                     13                     14                     15
                      A                      A                      A
 Frequencies --    467.8549               546.1694               619.2229
 Red. masses --      2.4294                 6.5029                 2.6938
 Frc consts  --      0.3133                 1.1429                 0.6086
 IR Inten    --     17.8561                 1.5185                 5.4500

                     16                     17                     18
                      A                      A                      A
 Frequencies --    725.2706               837.9250               850.9166
 Red. masses --      3.6525                 1.3392                 1.9533
 Frc consts  --      1.1320                 0.5540                 0.8333
 IR Inten    --     43.1508                66.8536                64.6051

                     19                     20                     21
                      A                      A                      A
 Frequencies --    922.6288               941.5394               990.9396
 Red. masses --      2.2504                 3.9112                 1.7683
 Frc consts  --      1.1286                 2.0429                 1.0230
 IR Inten    --     78.0776                21.5791                 8.2512

                     22                     23                     24
                      A                      A                      A
 Frequencies --   1004.9778              1059.0522              1108.6285
 Red. masses --      2.4562                 2.1868                 4.5110
 Frc consts  --      1.4616                 1.4451                 3.2666
 IR Inten    --     77.6003                29.9240                54.7692

                     25                     26                     27
                      A                      A                      A
 Frequencies --   1125.2002              1147.1877              1173.7020
 Red. masses --      2.3726                 1.6626                 1.6915
 Frc consts  --      1.7698                 1.2892                 1.3729
 IR Inten    --     51.9447                 0.3276                19.4538

                     28                     29                     30
                      A                      A                      A
 Frequencies --   1196.8405              1241.0053              1262.6435
 Red. masses --      1.5788                 1.6678                 1.6642
 Frc consts  --      1.3325                 1.5134                 1.5632
 IR Inten    --      8.1563                10.9069                 7.0503

                     31                     32                     33
                      A                      A                      A
 Frequencies --   1325.0687              1352.7455              1356.1428
 Red. masses --      1.1998                 1.2597                 1.3000
 Frc consts  --      1.2412                 1.3581                 1.4086
 IR Inten    --      3.4708                26.2312                16.3543

                     34                     35                     36
                      A                      A                      A
 Frequencies --   1417.6612              1442.5824              1477.0053
 Red. masses --      1.3451                 1.1829                 1.1444
 Frc consts  --      1.5928                 1.4503                 1.4709
 IR Inten    --      5.8390                 1.4839                49.5249

                     37                     38                     39
                      A                      A                      A
 Frequencies --   1485.4118              1488.4517              1494.8763
 Red. masses --      1.1194                 1.0748                 1.0749
 Frc consts  --      1.4552                 1.4029                 1.4152
 IR Inten    --      0.4939                17.0924                 4.8097

                     40                     41                     42
                      A                      A                      A
 Frequencies --   1502.2349              1518.7303              1679.4106
 Red. masses --      1.0525                 1.1881                 1.0763
 Frc consts  --      1.3994                 1.6146                 1.7886
 IR Inten    --      1.7489                11.5008                15.7709

                     43                     44                     45
                      A                      A                      A
 Frequencies --   2368.4347              2938.0989              2939.9455
 Red. masses --     12.6222                 1.0717                 1.0598
 Frc consts  --     41.7164                 5.4510                 5.3972
 IR Inten    --      4.6670                56.8248                54.5314

                     46                     47                     48
                      A                      A                      A
 Frequencies --   2972.0153              3044.3136              3052.8417
 Red. masses --      1.0679                 1.0851                 1.0936
 Frc consts  --      5.5577                 5.9250                 6.0053
 IR Inten    --     58.6219                 7.9426                31.8175

                     49                     50                     51
                      A                      A                      A
 Frequencies --   3093.3533              3149.7531              3378.5042
 Red. masses --      1.0714                 1.1045                 1.0570
 Frc consts  --      6.0403                 6.4561                 7.1087
 IR Inten    --     17.9806                12.4679                13.6348

                     52                     53                     54
                      A                      A                      A
 Frequencies --   3446.6774              3512.1524              3533.1072
 Red. masses --      1.0737                 1.0736                 1.0829
 Frc consts  --      7.5151                 7.8027                 7.9641
 IR Inten    --      2.4523                 4.9760                 0.7797

 - Thermochemistry -
 -------------------
 Temperature   298.150 Kelvin.  Pressure   1.00000 Atm.
 Atom     1 has atomic number  6 and mass  12.00000

 Molecular mass:   129.10145 amu.
 Principal axes and moments of inertia in atomic units:
                           1         2         3
     Eigenvalues --   477.780712767.813443057.59452
           X            0.99980  -0.01966  -0.00345
           Y            0.01977   0.99924   0.03364
           Z            0.00278  -0.03370   0.99943
 This molecule is an asymmetric top.
 Rotational symmetry number  1.
 Warning -- assumption of classical behavior for rotation
           may cause significant error
 Rotational temperatures (Kelvin)      0.18128     0.03129     0.02833
 Rotational constants (GHZ):           3.77734     0.65205     0.59025
 Zero-point vibrational energy     448530.8 (Joules/Mol)
                                  107.20143 (Kcal/Mol)
 Warning -- explicit consideration of  15 degrees of freedom as
           vibrations may cause significant error
 Vibrational temperatures:     57.33    89.12   120.07   185.36   216.45
          (Kelvin)            377.79   391.19   418.21   428.39   539.22
                              565.54   635.96   673.14   785.82   890.92
                             1043.50  1205.59  1224.28  1327.46  1354.67
                             1425.74  1445.94  1523.74  1595.07  1618.91
                             1650.55  1688.70  1721.99  1785.53  1816.66
                             1906.48  1946.30  1951.19  2039.70  2075.55
                             2125.08  2137.18  2141.55  2150.79  2161.38
                             2185.11  2416.30  3407.65  4227.27  4229.93
                             4276.07  4380.09  4392.36  4450.65  4531.79
                             4860.91  4959.00  5053.20  5083.35

 Zero-point correction=                           0.170836 (Hartree/Particle)
 Thermal correction to Energy=                    0.181358
 Thermal correction to Enthalpy=                  0.182302
 Thermal correction to Gibbs Free Energy=         0.133978
 Sum of electronic and zero-point Energies=           -432.560322
 Sum of electronic and thermal Energies=              -432.549801
 Sum of electronic and thermal Enthalpies=            -432.548857
 Sum of electronic and thermal Free Energies=         -432.597180

                     E (Thermal)             CV                S
                      KCal/Mol        Cal/Mol-Kelvin    Cal/Mol-Kelvin
 Total                  113.804             36.947            101.706
 Electronic               0.000              0.000              0.000
 Translational            0.889              2.981             40.479
 Rotational               0.889              2.981             29.782
 Vibrational            112.026             30.985             31.444
 Vibration     1          0.594              1.981              5.267
 Vibration     2          0.597              1.972              4.394
 Vibration     3          0.600              1.961              3.808
 Vibration     4          0.611              1.924              2.963
 Vibration     5          0.618              1.902              2.667
 Vibration     6          0.670              1.741              1.645
 Vibration     7          0.675              1.725              1.584
 Vibration     8          0.687              1.691              1.470
 Vibration     9          0.691              1.678              1.430
 Vibration    10          0.746              1.524              1.060
 Vibration    11          0.760              1.485              0.988
 Vibration    12          0.802              1.378              0.820
 Vibration    13          0.825              1.321              0.744
 Vibration    14          0.901              1.148              0.552
 Vibration    15          0.979              0.991              0.418

 Optimization completed.
    -- Stationary point found.
 Normal termination of Gaussian 16 at Tue Jun  1 13:19:06 2021.
