 Gaussian 16, Revision A.03,
 Gaussian 16:  ES64L-G16RevA.03 25-Dec-2016

 -----------------------------
 # opt freq b3lyp/6-31g(2df,p)
 -----------------------------

 -------------------
 Title Card Required
 -------------------
 Symbolic Z-matrix:
 Charge =  0 Multiplicity = 1

 SCF Done:  E(RB3LYP) =  -511.277508379     A.U. after   14 cycles
 SCF Done:  E(RB3LYP) =  -511.309811298     A.U. after   12 cycles
 SCF Done:  E(RB3LYP) =  -511.315228551     A.U. after   12 cycles
 SCF Done:  E(RB3LYP) =  -511.317566021     A.U. after   12 cycles
 SCF Done:  E(RB3LYP) =  -511.319273480     A.U. after   12 cycles
 SCF Done:  E(RB3LYP) =  -511.320492511     A.U. after   12 cycles
 SCF Done:  E(RB3LYP) =  -511.322407881     A.U. after   12 cycles
 SCF Done:  E(RB3LYP) =  -511.325397894     A.U. after   12 cycles
 SCF Done:  E(RB3LYP) =  -511.327694345     A.U. after   12 cycles
 SCF Done:  E(RB3LYP) =  -511.329583772     A.U. after   12 cycles
 SCF Done:  E(RB3LYP) =  -511.343070576     A.U. after   10 cycles
 SCF Done:  E(RB3LYP) =  -511.343136653     A.U. after   11 cycles
 SCF Done:  E(RB3LYP) =  -511.343200646     A.U. after   10 cycles
 SCF Done:  E(RB3LYP) =  -511.343212644     A.U. after    9 cycles
 SCF Done:  E(RB3LYP) =  -511.343217862     A.U. after    9 cycles
 SCF Done:  E(RB3LYP) =  -511.343219259     A.U. after    8 cycles
 SCF Done:  E(RB3LYP) =  -511.343219746     A.U. after    8 cycles
 SCF Done:  E(RB3LYP) =  -511.343219815     A.U. after    7 cycles
 SCF Done:  E(RB3LYP) =  -511.343219846     A.U. after    7 cycles
 Optimization completed.
    -- Stationary point found.
 Normal termination of Gaussian 16 at Tue Jun  1 19:18:00 2021.

 ----------------------------------------------------------------------
 #N Geom=AllCheck Guess=TCheck SCRF=Check GenChk RB3LYP/6-31G(2df,p) Fr
 eq
 ----------------------------------------------------------------------

 Structure from the checkpoint file:  "CNpNpNpCpNCCCCtN.chk"
 -------------------
 Title Card Required
 -------------------
 Charge =  0 Multiplicity = 1

                         Standard orientation:
 ---------------------------------------------------------------------
 Center     Atomic      Atomic             Coordinates (Angstroms)
 Number     Number       Type             X           Y           Z
 ---------------------------------------------------------------------
      1          6           0        2.496794   -1.673978    0.685754
      2          7           0        2.696768   -0.404344    0.006333
      3          7           0        2.668365   -0.514644   -1.412650
      4          7           0        1.803558    0.617674    0.486359
      5          6           0        2.485116    1.905822    0.360927
      6          7           0        0.555151    0.714607   -0.178464
      7          6           0       -0.482305   -0.170122    0.331412
      8          6           0       -1.855847    0.328466   -0.127120
      9          6           0       -2.990641   -0.572385    0.397274
     10          6           0       -4.310782   -0.135265   -0.050488
     11          7           0       -5.348227    0.220642   -0.414467
     12          1           0        3.369703   -2.311690    0.510023
     13          1           0        1.601570   -2.222816    0.343780
     14          1           0        2.402450   -1.487428    1.756600
     15          1           0        2.158119   -1.349688   -1.703261
     16          1           0        3.621918   -0.605055   -1.746138
     17          1           0        3.427843    1.855899    0.909182
     18          1           0        1.844753    2.676644    0.792485
     19          1           0        2.696168    2.166558   -0.687595
     20          1           0        0.700646    0.603715   -1.183097
     21          1           0       -0.414469   -0.145562    1.424049
     22          1           0       -0.366943   -1.226649    0.029871
     23          1           0       -1.897856    0.355741   -1.222170
     24          1           0       -2.001679    1.355579    0.218864
     25          1           0       -2.985073   -0.590563    1.493638
     26          1           0       -2.840467   -1.607460    0.067439
 ---------------------------------------------------------------------

 SCF Done:  E(RB3LYP) =  -511.343219846     A.U. after    1 cycles

 The electronic state is 1-A.
 Alpha  occ. eigenvalues --  -14.37118 -14.36725 -14.35166 -14.33628 -14.32234
 Alpha  occ. eigenvalues --  -10.23511 -10.21635 -10.21621 -10.20986 -10.20318
 Alpha  occ. eigenvalues --  -10.19029  -1.02641  -0.93242  -0.89705  -0.83984
 Alpha  occ. eigenvalues --   -0.80377  -0.77281  -0.70201  -0.67250  -0.61543
 Alpha  occ. eigenvalues --   -0.60125  -0.52523  -0.52271  -0.51321  -0.49660
 Alpha  occ. eigenvalues --   -0.48815  -0.45976  -0.45310  -0.42632  -0.41813
 Alpha  occ. eigenvalues --   -0.40805  -0.40470  -0.38385  -0.37639  -0.36989
 Alpha  occ. eigenvalues --   -0.35543  -0.34934  -0.31895  -0.31856  -0.27758
 Alpha  occ. eigenvalues --   -0.25900  -0.23964  -0.21810
 Alpha virt. eigenvalues --    0.03800   0.04387   0.05596   0.08438   0.10411
 Alpha virt. eigenvalues --    0.11275   0.11868   0.13249   0.13417   0.13880
 Alpha virt. eigenvalues --    0.14810   0.15328   0.15855   0.16768   0.17437

 Mulliken charges:
               1
     1  C   -0.303417
     2  N   -0.051391
     3  N   -0.465736
     4  N   -0.058496
     5  C   -0.272165
     6  N   -0.277654
     7  C   -0.116708
     8  C   -0.184810
     9  C   -0.341512
    10  C    0.257751
    11  N   -0.304819
    12  H    0.116447
    13  H    0.094983
    14  H    0.136150
    15  H    0.221840
    16  H    0.251704
    17  H    0.116372
    18  H    0.121097
    19  H    0.103299
    20  H    0.215018
    21  H    0.114396
    22  H    0.075303
    23  H    0.117356
    24  H    0.132315
    25  H    0.153324
    26  H    0.149350
 Sum of Mulliken charges =  -0.00000

 Dipole moment (field-independent basis, Debye):
    X=              4.5143    Y=             -2.8376    Z=              0.0615  Tot=              5.3324
 Quadrupole moment (field-independent basis, Debye-Ang):
   XX=            -94.7974   YY=            -64.7172   ZZ=            -65.3618
   XY=              1.0382   XZ=             -8.4206   YZ=              1.9341

  Exact polarizability: 128.110  -3.017  92.125   2.422  -0.464  84.563
 Approx polarizability: 161.689  -8.058 131.605   7.795  -0.721 131.619

                      1                      2                      3
                      A                      A                      A
 Frequencies --     32.6649                53.7943                70.9736
 Red. masses --      4.4526                 2.6061                 4.2754
 Frc consts  --      0.0028                 0.0044                 0.0127
 IR Inten    --      3.7334                 2.1065                 2.3076

                      4                      5                      6
                      A                      A                      A
 Frequencies --     96.3314               112.1237               137.8367
 Red. masses --      2.5550                 2.4316                 3.9181
 Frc consts  --      0.0140                 0.0180                 0.0439
 IR Inten    --      0.5673                 3.1297                 2.5289

                      7                      8                      9
                      A                      A                      A
 Frequencies --    199.6101               236.2954               246.8884
 Red. masses --      3.0745                 1.8309                 1.0842
 Frc consts  --      0.0722                 0.0602                 0.0389
 IR Inten    --      4.7187                 0.8075                 1.0484

                     10                     11                     12
                      A                      A                      A
 Frequencies --    264.5485               277.0348               322.2974
 Red. masses --      1.5505                 3.3292                 1.2068
 Frc consts  --      0.0639                 0.1505                 0.0739
 IR Inten    --      4.0862                 4.8747                33.7259

                     13                     14                     15
                      A                      A                      A
 Frequencies --    360.0326               374.9532               395.7776
 Red. masses --      2.8242                 2.6743                 2.9905
 Frc consts  --      0.2157                 0.2215                 0.2760
 IR Inten    --      9.5423                 2.9362                 4.9115

                     16                     17                     18
                      A                      A                      A
 Frequencies --    398.8725               478.9868               539.2126
 Red. masses --      3.4784                 2.6981                 4.7518
 Frc consts  --      0.3261                 0.3647                 0.8140
 IR Inten    --      1.3274                 2.3160                11.0045

                     19                     20                     21
                      A                      A                      A
 Frequencies --    586.4631               636.2636               724.3358
 Red. masses --      3.9954                 3.0529                 3.6749
 Frc consts  --      0.8096                 0.7282                 1.1360
 IR Inten    --      1.8230                12.2122                 7.7580

                     22                     23                     24
                      A                      A                      A
 Frequencies --    751.8997               799.8594               823.6736
 Red. masses --      1.1387                 2.0312                 2.6286
 Frc consts  --      0.3793                 0.7657                 1.0507
 IR Inten    --      3.9877                66.2428                77.7094

                     25                     26                     27
                      A                      A                      A
 Frequencies --    860.6067               941.5486               971.4443
 Red. masses --      1.3674                 4.0647                 2.1015
 Frc consts  --      0.5967                 2.1231                 1.1685
 IR Inten    --      1.1599                 3.8166                23.0458

                     28                     29                     30
                      A                      A                      A
 Frequencies --   1031.7248              1039.9485              1067.7254
 Red. masses --      2.2804                 1.7657                 3.4354
 Frc consts  --      1.4302                 1.1251                 2.3076
 IR Inten    --     11.6730                12.6537                 8.4063

                     31                     32                     33
                      A                      A                      A
 Frequencies --   1097.7879              1125.2771              1135.5210
 Red. masses --      2.4516                 1.8989                 1.6383
 Frc consts  --      1.7407                 1.4167                 1.2446
 IR Inten    --     14.4359                11.4782                12.0326

                     34                     35                     36
                      A                      A                      A
 Frequencies --   1150.0372              1166.2961              1180.5732
 Red. masses --      1.3501                 3.3461                 1.5636
 Frc consts  --      1.0520                 2.6817                 1.2840
 IR Inten    --      0.1957                 8.3879                 8.0496

                     37                     38                     39
                      A                      A                      A
 Frequencies --   1219.0824              1226.7257              1244.1040
 Red. masses --      2.3646                 2.4337                 1.6191
 Frc consts  --      2.0705                 2.1578                 1.4765
 IR Inten    --      6.0498                 4.8468                10.1080

                     40                     41                     42
                      A                      A                      A
 Frequencies --   1273.0134              1299.9775              1307.6026
 Red. masses --      1.3572                 1.2031                 1.3445
 Frc consts  --      1.2959                 1.1979                 1.3544
 IR Inten    --      1.2017                 2.4372                 7.2913

                     43                     44                     45
                      A                      A                      A
 Frequencies --   1316.9642              1362.3756              1403.5661
 Red. masses --      1.0823                 1.3847                 1.4708
 Frc consts  --      1.1060                 1.5142                 1.7071
 IR Inten    --      1.0166                 6.0498                 8.7202

                     46                     47                     48
                      A                      A                      A
 Frequencies --   1432.4306              1438.8889              1469.1974
 Red. masses --      1.1766                 1.1679                 1.0820
 Frc consts  --      1.4225                 1.4247                 1.3760
 IR Inten    --      0.2684                 0.0609                 1.9181

                     49                     50                     51
                      A                      A                      A
 Frequencies --   1471.6470              1485.5917              1493.5178
 Red. masses --      1.0827                 1.0573                 1.0831
 Frc consts  --      1.3815                 1.3748                 1.4235
 IR Inten    --      5.1706                11.0959                 5.9579

                     52                     53                     54
                      A                      A                      A
 Frequencies --   1500.3258              1502.6440              1508.0032
 Red. masses --      1.0682                 1.0556                 1.1365
 Frc consts  --      1.4167                 1.4044                 1.5227
 IR Inten    --      4.7876                 2.4667                 4.0466

                     55                     56                     57
                      A                      A                      A
 Frequencies --   1516.1876              1668.8230              2362.9320
 Red. masses --      1.0985                 1.0802                12.6091
 Frc consts  --      1.4879                 1.7724                41.4799
 IR Inten    --      5.2679                13.4692                14.3193

                     58                     59                     60
                      A                      A                      A
 Frequencies --   2930.2609              2955.3584              2992.2058
 Red. masses --      1.0696                 1.0582                 1.0516
 Frc consts  --      5.4113                 5.4457                 5.5472
 IR Inten    --     23.3176               107.4460                50.4361

                     61                     62                     63
                      A                      A                      A
 Frequencies --   3034.6425              3046.0159              3063.3394
 Red. masses --      1.0586                 1.0662                 1.0788
 Frc consts  --      5.7439                 5.8287                 5.9648
 IR Inten    --      2.0480                15.4328                44.7138

                     64                     65                     66
                      A                      A                      A
 Frequencies --   3069.9793              3071.7498              3098.3807
 Red. masses --      1.0950                 1.0884                 1.0799
 Frc consts  --      6.0805                 6.0508                 6.1081
 IR Inten    --      6.8308                10.1954                26.8258

                     67                     68                     69
                      A                      A                      A
 Frequencies --   3105.4472              3137.2125              3145.1686
 Red. masses --      1.1021                 1.0984                 1.1046
 Frc consts  --      6.2620                 6.3694                 6.4382
 IR Inten    --     24.4499                12.4526                21.5959

                     70                     71                     72
                      A                      A                      A
 Frequencies --   3421.0645              3428.8418              3552.0382
 Red. masses --      1.0553                 1.0714                 1.0875
 Frc consts  --      7.2768                 7.4215                 8.0838
 IR Inten    --      5.7779                14.4507                 2.8637

 - Thermochemistry -
 -------------------
 Temperature   298.150 Kelvin.  Pressure   1.00000 Atm.
 Atom     1 has atomic number  6 and mass  12.00000

 Molecular mass:   157.13275 amu.
 Principal axes and moments of inertia in atomic units:
                           1         2         3
     Eigenvalues --   723.561864727.629304998.34639
           X            0.99999   0.00066  -0.00408
           Y           -0.00072   0.99992  -0.01296
           Z            0.00407   0.01297   0.99991
 This molecule is an asymmetric top.
 Rotational symmetry number  1.
 Warning -- assumption of classical behavior for rotation
           may cause significant error
 Rotational temperatures (Kelvin)      0.11970     0.01832     0.01733
 Rotational constants (GHZ):           2.49425     0.38174     0.36107
 Zero-point vibrational energy     593614.1 (Joules/Mol)
                                  141.87717 (Kcal/Mol)
 Warning -- explicit consideration of  19 degrees of freedom as
           vibrations may cause significant error
 Vibrational temperatures:     47.00    77.40   102.12   138.60   161.32
          (Kelvin)            198.32   287.19   339.98   355.22   380.63
                              398.59   463.71   518.01   539.47   569.44
                              573.89   689.16   775.81   843.79   915.44
                             1042.16  1081.82  1150.82  1185.08  1238.22
                             1354.68  1397.69  1484.42  1496.25  1536.22
                             1579.47  1619.02  1633.76  1654.65  1678.04
                             1698.58  1753.99  1764.98  1789.99  1831.58
                             1870.38  1881.35  1894.82  1960.15  2019.42
                             2060.95  2070.24  2113.85  2117.37  2137.44
                             2148.84  2158.63  2161.97  2169.68  2181.46
                             2401.06  3399.73  4215.99  4252.10  4305.12
                             4366.17  4382.54  4407.46  4417.02  4419.56
                             4457.88  4468.05  4513.75  4525.20  4922.15
                             4933.34  5110.59

 Zero-point correction=                           0.226096 (Hartree/Particle)
 Thermal correction to Energy=                    0.239336
 Thermal correction to Enthalpy=                  0.240280
 Thermal correction to Gibbs Free Energy=         0.185613
 Sum of electronic and zero-point Energies=           -511.117124
 Sum of electronic and thermal Energies=              -511.103884
 Sum of electronic and thermal Enthalpies=            -511.102940
 Sum of electronic and thermal Free Energies=         -511.157607

                     E (Thermal)             CV                S
                      KCal/Mol        Cal/Mol-Kelvin    Cal/Mol-Kelvin
 Total                  150.186             47.562            115.058
 Electronic               0.000              0.000              0.000
 Translational            0.889              2.981             41.065
 Rotational               0.889              2.981             31.214
 Vibrational            148.408             41.600             42.778
 Vibration     1          0.594              1.983              5.661
 Vibration     2          0.596              1.976              4.673
 Vibration     3          0.598              1.968              4.126
 Vibration     4          0.603              1.952              3.527
 Vibration     5          0.607              1.939              3.232
 Vibration     6          0.614              1.916              2.834
 Vibration     7          0.638              1.840              2.137
 Vibration     8          0.655              1.785              1.831
 Vibration     9          0.661              1.768              1.753
 Vibration    10          0.671              1.738              1.632
 Vibration    11          0.678              1.716              1.552
 Vibration    12          0.707              1.631              1.298
 Vibration    13          0.735              1.555              1.122
 Vibration    14          0.746              1.523              1.059
 Vibration    15          0.763              1.479              0.978
 Vibration    16          0.765              1.473              0.967
 Vibration    17          0.835              1.297              0.713
 Vibration    18          0.894              1.163              0.567
 Vibration    19          0.944              1.061              0.474

                           ! Non-Optimized Parameters !
 Normal termination of Gaussian 16 at Tue Jun  1 20:09:03 2021.
