 Gaussian 16, Revision A.03,
 Gaussian 16:  ES64L-G16RevA.03 25-Dec-2016

 -----------------------------
 # opt freq b3lyp/6-31g(2df,p)
 -----------------------------

 -------------------
 Title Card Required
 -------------------
 Symbolic Z-matrix:
 Charge =  0 Multiplicity = 1

 SCF Done:  E(RB3LYP) =  -472.050329863     A.U. after   14 cycles
 SCF Done:  E(RB3LYP) =  -472.056338332     A.U. after   12 cycles
 SCF Done:  E(RB3LYP) =  -472.058228095     A.U. after   11 cycles
 SCF Done:  E(RB3LYP) =  -472.059279562     A.U. after   12 cycles
 SCF Done:  E(RB3LYP) =  -472.059988852     A.U. after   10 cycles
 SCF Done:  E(RB3LYP) =  -472.059183132     A.U. after   11 cycles
 SCF Done:  E(RB3LYP) =  -472.061151720     A.U. after   12 cycles
 SCF Done:  E(RB3LYP) =  -472.065136008     A.U. after   12 cycles
 SCF Done:  E(RB3LYP) =  -472.062023015     A.U. after   14 cycles
 SCF Done:  E(RB3LYP) =  -472.065244924     A.U. after   12 cycles
 SCF Done:  E(RB3LYP) =  -472.067557606     A.U. after   11 cycles
 SCF Done:  E(RB3LYP) =  -472.067753004     A.U. after   10 cycles
 SCF Done:  E(RB3LYP) =  -472.067797804     A.U. after   13 cycles
 SCF Done:  E(RB3LYP) =  -472.067913925     A.U. after   11 cycles
 SCF Done:  E(RB3LYP) =  -472.067934370     A.U. after    9 cycles
 SCF Done:  E(RB3LYP) =  -472.067938494     A.U. after    9 cycles
 SCF Done:  E(RB3LYP) =  -472.067938278     A.U. after    9 cycles
 SCF Done:  E(RB3LYP) =  -472.067939462     A.U. after    9 cycles
 SCF Done:  E(RB3LYP) =  -472.067939504     A.U. after    6 cycles
 Optimization completed.
    -- Stationary point found.
 Normal termination of Gaussian 16 at Tue Jun  1 17:32:58 2021.

 ----------------------------------------------------------------------
 #N Geom=AllCheck Guess=TCheck SCRF=Check GenChk RB3LYP/6-31G(2df,p) Fr
 eq
 ----------------------------------------------------------------------

 Structure from the checkpoint file:  "CNpNpCNCCNCtN.chk"
 -------------------
 Title Card Required
 -------------------
 Charge =  0 Multiplicity = 1

                         Standard orientation:
 ---------------------------------------------------------------------
 Center     Atomic      Atomic             Coordinates (Angstroms)
 Number     Number       Type             X           Y           Z
 ---------------------------------------------------------------------
      1          6           0       -4.221901   -0.528829   -0.027960
      2          7           0       -2.963704    0.138287   -0.323225
      3          7           0       -2.890814    1.449541    0.239755
      4          6           0       -1.813189   -0.623899    0.136700
      5          7           0       -0.591210   -0.028260   -0.371014
      6          6           0        0.607021   -0.578155    0.236902
      7          6           0        1.845833    0.042062   -0.406408
      8          7           0        3.064357   -0.547285    0.168919
      9          6           0        4.221804    0.113638    0.083255
     10          7           0        5.220584    0.707070    0.052189
     11          1           0       -5.048279    0.054018   -0.445235
     12          1           0       -4.400380   -0.651717    1.058246
     13          1           0       -4.234268   -1.519801   -0.492013
     14          1           0       -3.334069    1.465264    1.164835
     15          1           0       -3.423968    2.072208   -0.359368
     16          1           0       -1.909041   -1.644774   -0.253192
     17          1           0       -1.813092   -0.699819    1.252187
     18          1           0       -0.659925    0.968737   -0.179700
     19          1           0        0.617750   -1.663703    0.057470
     20          1           0        0.663528   -0.444262    1.332977
     21          1           0        1.881387    1.116316   -0.202591
     22          1           0        1.800832   -0.087381   -1.494737
     23          1           0        3.147628   -1.549460    0.059815
 ---------------------------------------------------------------------

 SCF Done:  E(RB3LYP) =  -472.067939504     A.U. after    1 cycles

 The electronic state is 1-A.
 Alpha  occ. eigenvalues --  -14.38098 -14.35584 -14.35035 -14.31493 -14.30504
 Alpha  occ. eigenvalues --  -10.23526 -10.23476 -10.23031 -10.21988 -10.21378
 Alpha  occ. eigenvalues --   -0.98853  -0.96570  -0.90591  -0.86988  -0.80499
 Alpha  occ. eigenvalues --   -0.75402  -0.69174  -0.62739  -0.61551  -0.58875
 Alpha  occ. eigenvalues --   -0.52009  -0.51406  -0.49555  -0.48475  -0.47212
 Alpha  occ. eigenvalues --   -0.44187  -0.42909  -0.41773  -0.41092  -0.38913
 Alpha  occ. eigenvalues --   -0.38058  -0.36492  -0.35352  -0.34217  -0.31463
 Alpha  occ. eigenvalues --   -0.27126  -0.24880  -0.23821  -0.22707
 Alpha virt. eigenvalues --    0.04065   0.06130   0.06872   0.09086   0.09215
 Alpha virt. eigenvalues --    0.10431   0.11349   0.13097   0.13405   0.14130
 Alpha virt. eigenvalues --    0.14996   0.16017   0.16657   0.17244   0.18487

 Mulliken charges:
               1
     1  C   -0.311608
     2  N   -0.071519
     3  N   -0.470425
     4  C   -0.046710
     5  N   -0.296219
     6  C   -0.140020
     7  C   -0.168876
     8  N   -0.388302
     9  C    0.322975
    10  N   -0.341167
    11  H    0.119891
    12  H    0.092715
    13  H    0.127575
    14  H    0.214852
    15  H    0.247932
    16  H    0.102276
    17  H    0.051023
    18  H    0.229747
    19  H    0.096697
    20  H    0.095367
    21  H    0.137689
    22  H    0.129587
    23  H    0.266519
 Sum of Mulliken charges =  -0.00000

 Dipole moment (field-independent basis, Debye):
    X=             -6.2746    Y=             -2.0765    Z=              0.7680  Tot=              6.6538
 Quadrupole moment (field-independent basis, Debye-Ang):
   XX=            -82.3598   YY=            -55.9361   ZZ=            -63.3194
   XY=            -13.1184   XZ=             -3.9906   YZ=              0.4862

  Exact polarizability: 123.902   6.524  81.925   0.157  -0.175  68.230
 Approx polarizability: 146.478  14.689 125.929  -0.022  -0.807 106.098

                      1                      2                      3
                      A                      A                      A
 Frequencies --     30.0804                49.6826                73.9358
 Red. masses --      5.1956                 3.9781                 3.9907
 Frc consts  --      0.0028                 0.0058                 0.0129
 IR Inten    --      4.0811                 4.5902                 5.9816

                      4                      5                      6
                      A                      A                      A
 Frequencies --     80.3174               137.8214               155.7154
 Red. masses --      2.0909                 2.8498                 2.9707
 Frc consts  --      0.0079                 0.0319                 0.0424
 IR Inten    --      1.1696                 8.3597                 1.9269

                      7                      8                      9
                      A                      A                      A
 Frequencies --    182.7817               245.0769               258.3246
 Red. masses --      2.9169                 2.0077                 1.9557
 Frc consts  --      0.0574                 0.0710                 0.0769
 IR Inten    --      3.4647                 0.6236                 1.3980

                     10                     11                     12
                      A                      A                      A
 Frequencies --    303.6995               334.0934               405.2752
 Red. masses --      1.8937                 1.4159                 2.7392
 Frc consts  --      0.1029                 0.0931                 0.2651
 IR Inten    --      7.3995                16.4764                 9.5489

                     13                     14                     15
                      A                      A                      A
 Frequencies --    419.1252               444.6468               457.7879
 Red. masses --      2.0238                 1.9728                 2.6128
 Frc consts  --      0.2095                 0.2298                 0.3226
 IR Inten    --      4.3684                53.9413                 8.4118

                     16                     17                     18
                      A                      A                      A
 Frequencies --    550.9785               556.2803               640.2767
 Red. masses --      7.5361                 4.1009                 2.8025
 Frc consts  --      1.3479                 0.7477                 0.6769
 IR Inten    --     22.2659                 5.6363                18.8662

                     19                     20                     21
                      A                      A                      A
 Frequencies --    807.8414               836.1805               854.9377
 Red. masses --      1.1204                 2.1329                 1.8500
 Frc consts  --      0.4308                 0.8787                 0.7967
 IR Inten    --      3.7431                91.1808                21.6721

                     22                     23                     24
                      A                      A                      A
 Frequencies --    971.0218              1000.5293              1038.0694
 Red. masses --      2.0206                 3.4238                 1.8636
 Frc consts  --      1.1225                 2.0194                 1.1832
 IR Inten    --     56.7066                12.7196                 4.4205

                     25                     26                     27
                      A                      A                      A
 Frequencies --   1049.6694              1076.4547              1097.0434
 Red. masses --      2.1318                 1.5234                 2.5770
 Frc consts  --      1.3839                 1.0400                 1.8273
 IR Inten    --     16.5399                 8.0527                 2.5606

                     28                     29                     30
                      A                      A                      A
 Frequencies --   1130.0865              1151.5491              1165.9447
 Red. masses --      2.1724                 1.4743                 3.3281
 Frc consts  --      1.6346                 1.1518                 2.6656
 IR Inten    --     36.5377                16.5671                 6.8342

                     31                     32                     33
                      A                      A                      A
 Frequencies --   1183.3610              1202.6404              1249.2042
 Red. masses --      3.7166                 1.6539                 1.5813
 Frc consts  --      3.0664                 1.4094                 1.4539
 IR Inten    --    135.6037                12.8984                 8.7940

                     34                     35                     36
                      A                      A                      A
 Frequencies --   1281.6561              1291.5441              1314.3734
 Red. masses --      1.2931                 2.1652                 1.1142
 Frc consts  --      1.2515                 2.1279                 1.1341
 IR Inten    --      4.7368                 6.7336                 1.6117

                     37                     38                     39
                      A                      A                      A
 Frequencies --   1328.7535              1346.2052              1395.2966
 Red. masses --      1.2818                 1.3339                 1.3003
 Frc consts  --      1.3334                 1.4243                 1.4915
 IR Inten    --     18.3993                10.1389                 8.6800

                     40                     41                     42
                      A                      A                      A
 Frequencies --   1434.5040              1453.8699              1471.2089
 Red. masses --      1.3753                 1.2400                 1.3792
 Frc consts  --      1.6675                 1.5443                 1.7589
 IR Inten    --      5.0488                 1.3213                19.1863

                     43                     44                     45
                      A                      A                      A
 Frequencies --   1485.4924              1495.7889              1499.4747
 Red. masses --      1.0537                 1.1278                 1.1111
 Frc consts  --      1.3699                 1.4867                 1.4718
 IR Inten    --     13.0252                86.2901                46.5018

                     46                     47                     48
                      A                      A                      A
 Frequencies --   1506.0327              1516.6651              1525.3773
 Red. masses --      1.0933                 1.1127                 1.0915
 Frc consts  --      1.4610                 1.5080                 1.4964
 IR Inten    --     14.6906                 2.1064                 2.6618

                     49                     50                     51
                      A                      A                      A
 Frequencies --   1664.7150              2346.6104              2790.7078
 Red. masses --      1.0863                12.3458                 1.0719
 Frc consts  --      1.7737                40.0545                 4.9184
 IR Inten    --     20.1219               169.7617               100.2016

                     52                     53                     54
                      A                      A                      A
 Frequencies --   2920.7581              2934.8293              3006.1219
 Red. masses --      1.0598                 1.0698                 1.0884
 Frc consts  --      5.3270                 5.4292                 5.7950
 IR Inten    --     79.6743                64.7237                30.9039

                     55                     56                     57
                      A                      A                      A
 Frequencies --   3032.4586              3039.1428              3066.2049
 Red. masses --      1.0636                 1.0843                 1.0709
 Frc consts  --      5.7624                 5.9005                 5.9317
 IR Inten    --     34.6158                29.6103                38.1068

                     58                     59                     60
                      A                      A                      A
 Frequencies --   3095.6637              3110.9049              3355.6211
 Red. masses --      1.1011                 1.1035                 1.0580
 Frc consts  --      6.2172                 6.2919                 7.0194
 IR Inten    --     18.3988                24.0580                16.0402

                     61                     62                     63
                      A                      A                      A
 Frequencies --   3496.0468              3540.7787              3576.6920
 Red. masses --      1.0724                 1.0823                 1.0740
 Frc consts  --      7.7225                 7.9947                 8.0947
 IR Inten    --     18.6363                 1.9958                25.4429

 - Thermochemistry -
 -------------------
 Temperature   298.150 Kelvin.  Pressure   1.00000 Atm.
 Atom     1 has atomic number  6 and mass  12.00000

 Molecular mass:   143.11710 amu.
 Principal axes and moments of inertia in atomic units:
                           1         2         3
     Eigenvalues --   319.754094986.837315189.53156
           X            0.99998  -0.00242  -0.00492
           Y            0.00238   0.99995  -0.00920
           Z            0.00494   0.00918   0.99995
 This molecule is an asymmetric top.
 Rotational symmetry number  1.
 Rotational temperatures (Kelvin)      0.27088     0.01737     0.01669
 Rotational constants (GHZ):           5.64415     0.36190     0.34777
 Zero-point vibrational energy     523150.5 (Joules/Mol)
                                  125.03597 (Kcal/Mol)
 Warning -- explicit consideration of  17 degrees of freedom as
           vibrations may cause significant error
 Vibrational temperatures:     43.28    71.48   106.38   115.56   198.29
          (Kelvin)            224.04   262.98   352.61   371.67   436.96
                              480.69   583.10   603.03   639.75   658.65
                              792.74   800.36   921.22  1162.30  1203.08
                             1230.06  1397.08  1439.54  1493.55  1510.24
                             1548.78  1578.40  1625.94  1656.82  1677.53
                             1702.59  1730.33  1797.33  1844.02  1858.24
                             1891.09  1911.78  1936.89  2007.52  2063.93
                             2091.79  2116.74  2137.29  2152.11  2157.41
                             2166.85  2182.14  2194.68  2395.15  3376.25
                             4015.21  4202.32  4222.56  4325.14  4363.03
                             4372.65  4411.58  4453.97  4475.90  4827.99
                             5030.03  5094.39  5146.06

 Zero-point correction=                           0.199257 (Hartree/Particle)
 Thermal correction to Energy=                    0.211268
 Thermal correction to Enthalpy=                  0.212212
 Thermal correction to Gibbs Free Energy=         0.159886
 Sum of electronic and zero-point Energies=           -471.868682
 Sum of electronic and thermal Energies=              -471.856672
 Sum of electronic and thermal Enthalpies=            -471.855727
 Sum of electronic and thermal Free Energies=         -471.908053

                     E (Thermal)             CV                S
                      KCal/Mol        Cal/Mol-Kelvin    Cal/Mol-Kelvin
 Total                  132.573             41.854            110.129
 Electronic               0.000              0.000              0.000
 Translational            0.889              2.981             40.787
 Rotational               0.889              2.981             30.493
 Vibrational            130.795             35.892             38.849
 Vibration     1          0.594              1.984              5.824
 Vibration     2          0.595              1.978              4.830
 Vibration     3          0.599              1.966              4.046
 Vibration     4          0.600              1.963              3.883
 Vibration     5          0.614              1.916              2.834
 Vibration     6          0.620              1.896              2.601
 Vibration     7          0.630              1.863              2.300
 Vibration     8          0.660              1.771              1.766
 Vibration     9          0.667              1.749              1.673
 Vibration    10          0.695              1.667              1.396
 Vibration    11          0.716              1.607              1.240
 Vibration    12          0.770              1.459              0.943
 Vibration    13          0.782              1.429              0.895
 Vibration    14          0.804              1.373              0.812
 Vibration    15          0.816              1.344              0.773
 Vibration    16          0.906              1.138              0.542
 Vibration    17          0.912              1.126              0.531

 Optimization completed.
    -- Stationary point found.
 Normal termination of Gaussian 16 at Tue Jun  1 18:02:57 2021.
