 Gaussian 16, Revision A.03,
 Gaussian 16:  ES64L-G16RevA.03 25-Dec-2016

 -----------------------------
 # opt freq b3lyp/6-31g(2df,p)
 -----------------------------

 -------------------
 Title Card Required
 -------------------
 Symbolic Z-matrix:
 Charge =  0 Multiplicity = 1

 SCF Done:  E(RB3LYP) =  -394.609423785     A.U. after   13 cycles
 SCF Done:  E(RB3LYP) =  -394.617155789     A.U. after   12 cycles
 SCF Done:  E(RB3LYP) =  -394.621437299     A.U. after   12 cycles
 SCF Done:  E(RB3LYP) =  -394.628213578     A.U. after   13 cycles
 SCF Done:  E(RB3LYP) =  -394.632845051     A.U. after   12 cycles
 SCF Done:  E(RB3LYP) =  -394.636040786     A.U. after   12 cycles
 SCF Done:  E(RB3LYP) =  -394.637473240     A.U. after   12 cycles
 SCF Done:  E(RB3LYP) =  -394.638991360     A.U. after   11 cycles
 SCF Done:  E(RB3LYP) =  -394.639874842     A.U. after   11 cycles
 SCF Done:  E(RB3LYP) =  -394.640282532     A.U. after   12 cycles
 SCF Done:  E(RB3LYP) =  -394.640376261     A.U. after   10 cycles
 SCF Done:  E(RB3LYP) =  -394.640402884     A.U. after    9 cycles
 SCF Done:  E(RB3LYP) =  -394.640408192     A.U. after    8 cycles
 SCF Done:  E(RB3LYP) =  -394.640410287     A.U. after    7 cycles
 SCF Done:  E(RB3LYP) =  -394.640411071     A.U. after    7 cycles
 SCF Done:  E(RB3LYP) =  -394.640411350     A.U. after    7 cycles
 Optimization completed.
    -- Stationary point found.
 Normal termination of Gaussian 16 at Tue Jun  1 18:55:57 2021.

 ----------------------------------------------------------------------
 #N Geom=AllCheck Guess=TCheck SCRF=Check GenChk RB3LYP/6-31G(2df,p) Fr
 eq
 ----------------------------------------------------------------------

 Structure from the checkpoint file:  "CNpNdCNpNCN.chk"
 -------------------
 Title Card Required
 -------------------
 Charge =  0 Multiplicity = 1

                         Standard orientation:
 ---------------------------------------------------------------------
 Center     Atomic      Atomic             Coordinates (Angstroms)
 Number     Number       Type             X           Y           Z
 ---------------------------------------------------------------------
      1          6           0        0.249060    1.921096    0.404902
      2          7           0        0.068123    0.802909   -0.504282
      3          7           0        0.950077   -0.265407   -0.425637
      4          6           0        2.103913   -0.123988    0.100256
      5          7           0        2.979039   -1.204539    0.205989
      6          7           0       -1.277954    0.390191   -0.607204
      7          6           0       -1.718826   -0.574655    0.407095
      8          7           0       -3.091996   -0.923000    0.077133
      9          1           0        1.141335    2.493018    0.126352
     10          1           0        0.360415    1.610524    1.458485
     11          1           0       -0.621657    2.568040    0.306398
     12          1           0        2.485196    0.798013    0.540898
     13          1           0        2.697658   -1.984784   -0.374851
     14          1           0        3.950801   -0.964859    0.061846
     15          1           0       -1.396275   -0.040825   -1.519884
     16          1           0       -1.583074   -0.098107    1.392666
     17          1           0       -1.117426   -1.494443    0.400119
     18          1           0       -3.702574   -0.131548    0.254521
     19          1           0       -3.410299   -1.690824    0.657944
 ---------------------------------------------------------------------

 SCF Done:  E(RB3LYP) =  -394.640411350     A.U. after    1 cycles

 The electronic state is 1-A.
 Alpha  occ. eigenvalues --  -14.36698 -14.33166 -14.32551 -14.32504 -14.30443
 Alpha  occ. eigenvalues --  -10.23230 -10.21568 -10.19922  -1.00852  -0.92314
 Alpha  occ. eigenvalues --   -0.88502  -0.83803  -0.76181  -0.67247  -0.62294
 Alpha  occ. eigenvalues --   -0.57085  -0.54116  -0.49951  -0.48223  -0.47593
 Alpha  occ. eigenvalues --   -0.45132  -0.43323  -0.41316  -0.40026  -0.38929
 Alpha  occ. eigenvalues --   -0.37927  -0.36096  -0.28264  -0.26079  -0.23897
 Alpha  occ. eigenvalues --   -0.22911  -0.18253
 Alpha virt. eigenvalues --    0.04027   0.08646   0.09294   0.10483   0.12788
 Alpha virt. eigenvalues --    0.13829   0.15161   0.15835   0.15890   0.17680
 Alpha virt. eigenvalues --    0.18422   0.20213   0.21762   0.23737   0.24445

 Mulliken charges:
               1
     1  C   -0.308769
     2  N   -0.033477
     3  N   -0.182189
     4  C    0.062091
     5  N   -0.513328
     6  N   -0.251996
     7  C   -0.079672
     8  N   -0.509314
     9  H    0.119879
    10  H    0.102579
    11  H    0.136797
    12  H    0.092051
    13  H    0.248184
    14  H    0.244473
    15  H    0.230982
    16  H    0.080765
    17  H    0.104309
    18  H    0.228781
    19  H    0.227853
 Sum of Mulliken charges =  -0.00000

 Dipole moment (field-independent basis, Debye):
    X=              1.3973    Y=              0.0968    Z=              1.2543  Tot=              1.8802
 Quadrupole moment (field-independent basis, Debye-Ang):
   XX=            -37.9415   YY=            -46.5964   ZZ=            -50.5806
   XY=              0.3356   XZ=             -5.6259   YZ=              1.6194

  Exact polarizability: 101.055  -5.466  71.301   4.685   1.737  52.651
 Approx polarizability: 134.242 -10.116  99.739  15.296   0.068  83.824

                      1                      2                      3
                      A                      A                      A
 Frequencies --     80.3525                94.3735               131.1144
 Red. masses --      2.7705                 2.9891                 2.1444
 Frc consts  --      0.0105                 0.0157                 0.0217
 IR Inten    --      1.6553                 5.3608                10.8653

                      4                      5                      6
                      A                      A                      A
 Frequencies --    171.9319               215.5299               249.5632
 Red. masses --      1.8523                 2.2435                 1.4495
 Frc consts  --      0.0323                 0.0614                 0.0532
 IR Inten    --      4.0382                 9.7766                15.4053

                      7                      8                      9
                      A                      A                      A
 Frequencies --    274.4673               301.5985               360.3312
 Red. masses --      1.3590                 2.4421                 1.9611
 Frc consts  --      0.0603                 0.1309                 0.1500
 IR Inten    --      6.5508                30.2974                26.5362

                     10                     11                     12
                      A                      A                      A
 Frequencies --    386.5795               424.5269               475.6071
 Red. masses --      1.6797                 3.0578                 3.5526
 Frc consts  --      0.1479                 0.3247                 0.4735
 IR Inten    --     57.4950                 0.8226                 5.1496

                     13                     14                     15
                      A                      A                      A
 Frequencies --    559.6452               621.2662               712.7563
 Red. masses --      3.7038                 3.9842                 1.3733
 Frc consts  --      0.6835                 0.9060                 0.4110
 IR Inten    --     17.1212                24.0274               300.2352

                     16                     17                     18
                      A                      A                      A
 Frequencies --    801.5738               848.6621               855.4339
 Red. masses --      1.6948                 1.7075                 1.8868
 Frc consts  --      0.6416                 0.7246                 0.8135
 IR Inten    --     36.6515                59.7194               137.1746

                     19                     20                     21
                      A                      A                      A
 Frequencies --    931.7874               963.2601              1026.7009
 Red. masses --      1.4970                 1.4222                 2.6804
 Frc consts  --      0.7658                 0.7775                 1.6647
 IR Inten    --      9.5523                19.9540                15.6207

                     22                     23                     24
                      A                      A                      A
 Frequencies --   1089.7130              1116.5144              1128.0597
 Red. masses --      2.6591                 1.7822                 1.7914
 Frc consts  --      1.8604                 1.3090                 1.3431
 IR Inten    --      7.7571                13.9091                55.8890

                     25                     26                     27
                      A                      A                      A
 Frequencies --   1146.3638              1185.2941              1213.7138
 Red. masses --      1.8075                 1.7249                 1.7352
 Frc consts  --      1.3995                 1.4278                 1.5061
 IR Inten    --     29.1940                14.6875                 0.6771

                     28                     29                     30
                      A                      A                      A
 Frequencies --   1266.9995              1307.5366              1330.8153
 Red. masses --      2.3086                 2.1310                 1.4072
 Frc consts  --      2.1835                 2.1466                 1.4684
 IR Inten    --     14.2219                22.1637                 3.3581

                     31                     32                     33
                      A                      A                      A
 Frequencies --   1391.4702              1415.9240              1437.5094
 Red. masses --      1.4263                 1.2985                 1.1974
 Frc consts  --      1.6271                 1.5338                 1.4578
 IR Inten    --      7.8772                11.6067                 1.0867

                     34                     35                     36
                      A                      A                      A
 Frequencies --   1482.5513              1501.1125              1508.5039
 Red. masses --      1.0478                 1.1807                 1.0578
 Frc consts  --      1.3569                 1.5676                 1.4183
 IR Inten    --      6.3560                12.1704                12.3011

                     37                     38                     39
                      A                      A                      A
 Frequencies --   1538.1173              1629.4834              1645.4596
 Red. masses --      1.0850                 1.1637                 1.1002
 Frc consts  --      1.5124                 1.8205                 1.7551
 IR Inten    --      0.5298                30.9058                24.0060

                     40                     41                     42
                      A                      A                      A
 Frequencies --   1722.9130              2947.8730              2959.1635
 Red. masses --      5.7889                 1.0622                 1.0611
 Frc consts  --     10.1245                 5.4383                 5.4746
 IR Inten    --    108.2317                 6.6216               107.8300

                     43                     44                     45
                      A                      A                      A
 Frequencies --   3018.1515              3052.6076              3113.7174
 Red. masses --      1.0925                 1.0830                 1.0864
 Frc consts  --      5.8634                 5.9460                 6.2059
 IR Inten    --     41.7354                35.8592                32.5090

                     46                     47                     48
                      A                      A                      A
 Frequencies --   3153.7786              3502.9936              3505.5323
 Red. masses --      1.0954                 1.0492                 1.0742
 Frc consts  --      6.4190                 7.5855                 7.7777
 IR Inten    --      7.8953                 0.3554                 1.8436

                     49                     50                     51
                      A                      A                      A
 Frequencies --   3533.7833              3589.5662              3638.9430
 Red. masses --      1.0467                 1.0927                 1.0972
 Frc consts  --      7.7014                 8.2954                 8.5602
 IR Inten    --      8.2008                 0.8065                11.0032

 - Thermochemistry -
 -------------------
 Temperature   298.150 Kelvin.  Pressure   1.00000 Atm.
 Atom     1 has atomic number  6 and mass  12.00000

 Molecular mass:   117.10145 amu.
 Principal axes and moments of inertia in atomic units:
                           1         2         3
     Eigenvalues --   509.147871674.623562016.16059
           X            0.99994   0.00867  -0.00615
           Y           -0.00849   0.99955   0.02868
           Z            0.00639  -0.02862   0.99957
 This molecule is an asymmetric top.
 Rotational symmetry number  1.
 Warning -- assumption of classical behavior for rotation
           may cause significant error
 Rotational temperatures (Kelvin)      0.17012     0.05172     0.04296
 Rotational constants (GHZ):           3.54463     1.07770     0.89514
 Zero-point vibrational energy     434012.5 (Joules/Mol)
                                  103.73148 (Kcal/Mol)
 Warning -- explicit consideration of  13 degrees of freedom as
           vibrations may cause significant error
 Vibrational temperatures:    115.61   135.78   188.64   247.37   310.10
          (Kelvin)            359.07   394.90   433.93   518.44   556.20
                              610.80   684.29   805.20   893.86  1025.50
                             1153.29  1221.04  1230.78  1340.63  1385.92
                             1477.19  1567.85  1606.42  1623.03  1649.36
                             1705.37  1746.26  1822.93  1881.25  1914.75
                             2002.02  2037.20  2068.26  2133.06  2159.77
                             2170.40  2213.01  2344.46  2367.45  2478.89
                             4241.33  4257.58  4342.45  4392.02  4479.94
                             4537.58  5040.03  5043.68  5084.33  5164.59
                             5235.63

 Zero-point correction=                           0.165307 (Hartree/Particle)
 Thermal correction to Energy=                    0.175015
 Thermal correction to Enthalpy=                  0.175959
 Thermal correction to Gibbs Free Energy=         0.130845
 Sum of electronic and zero-point Energies=           -394.475105
 Sum of electronic and thermal Energies=              -394.465396
 Sum of electronic and thermal Enthalpies=            -394.464452
 Sum of electronic and thermal Free Energies=         -394.509567

                     E (Thermal)             CV                S
                      KCal/Mol        Cal/Mol-Kelvin    Cal/Mol-Kelvin
 Total                  109.824             34.975             94.952
 Electronic               0.000              0.000              0.000
 Translational            0.889              2.981             40.189
 Rotational               0.889              2.981             28.932
 Vibrational            108.046             29.013             25.831
 Vibration     1          0.600              1.962              3.882
 Vibration     2          0.603              1.953              3.567
 Vibration     3          0.612              1.922              2.930
 Vibration     4          0.626              1.877              2.414
 Vibration     5          0.645              1.817              1.996
 Vibration     6          0.662              1.763              1.734
 Vibration     7          0.677              1.721              1.568
 Vibration     8          0.694              1.671              1.408
 Vibration     9          0.735              1.554              1.121
 Vibration    10          0.755              1.499              1.013
 Vibration    11          0.787              1.417              0.877
 Vibration    12          0.832              1.304              0.722
 Vibration    13          0.915              1.119              0.525

 Optimization completed.
    -- Stationary point found.
 Normal termination of Gaussian 16 at Tue Jun  1 19:16:55 2021.
