 Gaussian 16, Revision A.03,
 Gaussian 16:  ES64L-G16RevA.03 25-Dec-2016

 -----------------------------
 # opt freq b3lyp/6-31g(2df,p)
 -----------------------------

 -------------------
 Title Card Required
 -------------------
 Symbolic Z-matrix:
 Charge =  0 Multiplicity = 1

 SCF Done:  E(RB3LYP) =  -495.332997744     A.U. after   13 cycles
 SCF Done:  E(RB3LYP) =  -495.338409569     A.U. after   12 cycles
 SCF Done:  E(RB3LYP) =  -495.342746264     A.U. after   12 cycles
 SCF Done:  E(RB3LYP) =  -495.346097928     A.U. after   12 cycles
 SCF Done:  E(RB3LYP) =  -495.348023831     A.U. after   11 cycles
 SCF Done:  E(RB3LYP) =  -495.349457522     A.U. after   11 cycles
 SCF Done:  E(RB3LYP) =  -495.351184657     A.U. after   12 cycles
 SCF Done:  E(RB3LYP) =  -495.353197383     A.U. after   11 cycles
 SCF Done:  E(RB3LYP) =  -495.355369518     A.U. after   11 cycles
 SCF Done:  E(RB3LYP) =  -495.355562400     A.U. after   11 cycles
 SCF Done:  E(RB3LYP) =  -495.356094721     A.U. after   12 cycles
 SCF Done:  E(RB3LYP) =  -495.356307570     A.U. after   10 cycles
 SCF Done:  E(RB3LYP) =  -495.356388736     A.U. after   10 cycles
 SCF Done:  E(RB3LYP) =  -495.356436044     A.U. after    9 cycles
 SCF Done:  E(RB3LYP) =  -495.356440256     A.U. after    8 cycles
 SCF Done:  E(RB3LYP) =  -495.356440887     A.U. after    7 cycles
 SCF Done:  E(RB3LYP) =  -495.356441075     A.U. after    7 cycles
 SCF Done:  E(RB3LYP) =  -495.356441188     A.U. after    6 cycles
 SCF Done:  E(RB3LYP) =  -495.356441228     A.U. after    6 cycles
 Optimization completed.
    -- Stationary point found.
 Normal termination of Gaussian 16 at Mon May 31 20:17:42 2021.

 ----------------------------------------------------------------------
 #N Geom=AllCheck Guess=TCheck SCRF=Check GenChk RB3LYP/6-31G(2df,p) Fr
 eq
 ----------------------------------------------------------------------

 Structure from the checkpoint file:  "CNpNpCpCNpCCCCtN.chk"
 -------------------
 Title Card Required
 -------------------
 Charge =  0 Multiplicity = 1

                         Standard orientation:
 ---------------------------------------------------------------------
 Center     Atomic      Atomic             Coordinates (Angstroms)
 Number     Number       Type             X           Y           Z
 ---------------------------------------------------------------------
      1          6           0       -3.421250   -0.378241   -0.123894
      2          7           0       -2.087800   -0.849300    0.235214
      3          7           0       -1.811961   -2.099488   -0.406985
      4          6           0       -0.980508    0.081985   -0.050345
      5          6           0       -1.240974    1.487343    0.524288
      6          7           0       -2.057993    2.325580   -0.360053
      7          6           0        0.321132   -0.492048    0.542613
      8          6           0        1.588255    0.051809   -0.123245
      9          6           0        2.861716   -0.534378    0.519379
     10          6           0        4.087479   -0.038538   -0.102922
     11          7           0        5.045176    0.366589   -0.607325
     12          1           0       -4.149054   -1.127673    0.205090
     13          1           0       -3.539916   -0.233518   -1.214245
     14          1           0       -3.650252    0.572495    0.354626
     15          1           0       -2.179187   -2.082891   -1.365248
     16          1           0       -2.337077   -2.813851    0.089568
     17          1           0       -0.848843    0.185256   -1.147794
     18          1           0       -0.265280    1.940991    0.758719
     19          1           0       -1.765211    1.373433    1.480827
     20          1           0       -1.542703    2.521911   -1.213485
     21          1           0       -2.226378    3.225376    0.079826
     22          1           0        0.290098   -1.577063    0.424882
     23          1           0        0.341223   -0.282713    1.620801
     24          1           0        1.636920    1.144845   -0.060000
     25          1           0        1.583480   -0.197505   -1.190475
     26          1           0        2.851761   -1.628196    0.447465
     27          1           0        2.893369   -0.292164    1.588248
 ---------------------------------------------------------------------

 SCF Done:  E(RB3LYP) =  -495.356441228     A.U. after    1 cycles

 The electronic state is 1-A.
 Alpha  occ. eigenvalues --  -14.34496 -14.33737 -14.31966 -14.31568 -10.23008
 Alpha  occ. eigenvalues --  -10.21444 -10.21338 -10.21121 -10.20092 -10.19466
 Alpha  occ. eigenvalues --  -10.18023  -0.97036  -0.89440  -0.88622  -0.82085
 Alpha  occ. eigenvalues --   -0.79398  -0.75055  -0.68886  -0.65785  -0.61075
 Alpha  occ. eigenvalues --   -0.57244  -0.51278  -0.50188  -0.49174  -0.49067
 Alpha  occ. eigenvalues --   -0.47440  -0.46164  -0.45025  -0.41691  -0.41095
 Alpha  occ. eigenvalues --   -0.40645  -0.39473  -0.38343  -0.36333  -0.35665
 Alpha  occ. eigenvalues --   -0.34731  -0.34226  -0.33216  -0.31604  -0.31236
 Alpha  occ. eigenvalues --   -0.25462  -0.24319  -0.22238
 Alpha virt. eigenvalues --    0.04121   0.04677   0.07149   0.08107   0.08649
 Alpha virt. eigenvalues --    0.10751   0.11458   0.12816   0.13613   0.14227
 Alpha virt. eigenvalues --    0.14511   0.14562   0.16210   0.17322   0.17845

 Mulliken charges:
               1
     1  C   -0.294951
     2  N   -0.096104
     3  N   -0.462805
     4  C    0.107139
     5  C   -0.197073
     6  N   -0.510759
     7  C   -0.199340
     8  C   -0.188915
     9  C   -0.339950
    10  C    0.255393
    11  N   -0.308185
    12  H    0.101512
    13  H    0.087394
    14  H    0.139279
    15  H    0.210151
    16  H    0.239435
    17  H    0.042770
    18  H    0.087768
    19  H    0.115931
    20  H    0.226271
    21  H    0.228383
    22  H    0.126037
    23  H    0.091738
    24  H    0.114193
    25  H    0.120567
    26  H    0.154117
    27  H    0.150004
 Sum of Mulliken charges =  -0.00000

 Dipole moment (field-independent basis, Debye):
    X=             -4.2916    Y=             -0.2222    Z=              0.9826  Tot=              4.4083
 Quadrupole moment (field-independent basis, Debye-Ang):
   XX=            -95.1355   YY=            -61.0249   ZZ=            -67.0588
   XY=             -2.7007   XZ=              7.6939   YZ=              1.5058

  Exact polarizability: 126.977   4.193  99.428  -3.172  -0.981  85.475
 Approx polarizability: 157.028   9.122 141.176 -11.090  -3.530 138.931

                      1                      2                      3
                      A                      A                      A
 Frequencies --     42.9428                55.6164                67.6240
 Red. masses --      4.4546                 3.4284                 2.3656
 Frc consts  --      0.0048                 0.0062                 0.0064
 IR Inten    --      4.3193                 2.0824                 2.3727

                      4                      5                      6
                      A                      A                      A
 Frequencies --     85.4088               118.1854               149.0979
 Red. masses --      3.4383                 2.6208                 2.8397
 Frc consts  --      0.0148                 0.0216                 0.0372
 IR Inten    --      1.7102                 2.7665                 2.1676

                      7                      8                      9
                      A                      A                      A
 Frequencies --    189.2100               224.5814               243.2307
 Red. masses --      3.0582                 1.1575                 1.7687
 Frc consts  --      0.0645                 0.0344                 0.0617
 IR Inten    --      5.5083                25.1726                 3.1163

                     10                     11                     12
                      A                      A                      A
 Frequencies --    278.8161               298.0110               315.9718
 Red. masses --      2.3922                 1.5241                 1.7096
 Frc consts  --      0.1096                 0.0798                 0.1006
 IR Inten    --      5.3310                18.8602                11.3039

                     13                     14                     15
                      A                      A                      A
 Frequencies --    334.1339               379.7994               386.3317
 Red. masses --      2.2980                 2.3974                 3.0409
 Frc consts  --      0.1512                 0.2038                 0.2674
 IR Inten    --      7.4384                 0.5029                 1.2260

                     16                     17                     18
                      A                      A                      A
 Frequencies --    400.6410               476.9317               505.7365
 Red. masses --      3.4066                 3.0722                 2.6115
 Frc consts  --      0.3222                 0.4117                 0.3935
 IR Inten    --      0.7951                 8.4166                 0.6028

                     19                     20                     21
                      A                      A                      A
 Frequencies --    549.4820               576.3602               738.6300
 Red. masses --      3.2345                 4.4920                 1.1234
 Frc consts  --      0.5754                 0.8792                 0.3611
 IR Inten    --      5.6059                 7.5480                 3.9796

                     22                     23                     24
                      A                      A                      A
 Frequencies --    780.3750               828.6361               862.1517
 Red. masses --      2.1328                 1.4914                 1.6919
 Frc consts  --      0.7652                 0.6034                 0.7409
 IR Inten    --     48.4865                 2.3428                37.1126

                     25                     26                     27
                      A                      A                      A
 Frequencies --    924.5634               932.2477               957.0684
 Red. masses --      2.3392                 3.1931                 2.1158
 Frc consts  --      1.1781                 1.6350                 1.1419
 IR Inten    --     76.5505                26.2807                10.1776

                     28                     29                     30
                      A                      A                      A
 Frequencies --   1006.3477              1033.0101              1055.6691
 Red. masses --      2.7104                 2.2571                 1.9409
 Frc consts  --      1.6173                 1.4191                 1.2744
 IR Inten    --     11.4477                 9.6127                 5.1644

                     31                     32                     33
                      A                      A                      A
 Frequencies --   1062.7221              1079.4513              1099.3384
 Red. masses --      2.0858                 1.9942                 1.8980
 Frc consts  --      1.3879                 1.3690                 1.3515
 IR Inten    --     11.6509                 2.2836                 0.9118

                     34                     35                     36
                      A                      A                      A
 Frequencies --   1110.5380              1136.7870              1154.3266
 Red. masses --      2.1691                 1.6560                 1.3113
 Frc consts  --      1.5762                 1.2609                 1.0294
 IR Inten    --     19.2509                10.2520                 5.1331

                     37                     38                     39
                      A                      A                      A
 Frequencies --   1193.8242              1223.7687              1256.1090
 Red. masses --      2.4006                 1.4845                 1.2931
 Frc consts  --      2.0158                 1.3098                 1.2021
 IR Inten    --     13.5241                 0.7752                 0.8159

                     40                     41                     42
                      A                      A                      A
 Frequencies --   1275.1560              1293.7949              1308.0635
 Red. masses --      1.8498                 1.2338                 1.2866
 Frc consts  --      1.7721                 1.2169                 1.2970
 IR Inten    --      3.6284                 2.4532                 0.7457

                     43                     44                     45
                      A                      A                      A
 Frequencies --   1324.4938              1338.1718              1339.2325
 Red. masses --      1.1020                 1.2929                 1.2255
 Frc consts  --      1.1390                 1.3641                 1.2950
 IR Inten    --      1.2121                 0.7372                10.6214

                     46                     47                     48
                      A                      A                      A
 Frequencies --   1364.7337              1381.5939              1402.0002
 Red. masses --      1.3899                 1.3966                 1.4511
 Frc consts  --      1.5252                 1.5707                 1.6805
 IR Inten    --      2.8151                 8.3909                22.3772

                     49                     50                     51
                      A                      A                      A
 Frequencies --   1429.2595              1464.0466              1468.1994
 Red. masses --      1.4495                 1.1751                 1.0827
 Frc consts  --      1.7446                 1.4840                 1.3751
 IR Inten    --      6.4873                 4.7873                 2.1756

                     52                     53                     54
                      A                      A                      A
 Frequencies --   1475.9009              1488.9694              1491.3917
 Red. masses --      1.0589                 1.0752                 1.0557
 Frc consts  --      1.3590                 1.4045                 1.3835
 IR Inten    --     20.1345                 4.7358                 2.7801

                     55                     56                     57
                      A                      A                      A
 Frequencies --   1503.1711              1513.0733              1656.0586
 Red. masses --      1.0900                 1.0836                 1.0886
 Frc consts  --      1.4511                 1.4617                 1.7591
 IR Inten    --      2.7271                11.3875                27.6096

                     58                     59                     60
                      A                      A                      A
 Frequencies --   1667.1141              2361.3105              2877.4562
 Red. masses --      1.0824                12.6090                 1.0798
 Frc consts  --      1.7725                41.4225                 5.2676
 IR Inten    --     14.7577                13.7263                50.8087

                     61                     62                     63
                      A                      A                      A
 Frequencies --   2933.3787              2971.0778              3019.5104
 Red. masses --      1.0599                 1.0708                 1.0687
 Frc consts  --      5.3735                 5.5690                 5.7410
 IR Inten    --     74.4624                71.5748                20.7249

                     64                     65                     66
                      A                      A                      A
 Frequencies --   3033.6040              3043.7013              3053.5366
 Red. masses --      1.0587                 1.0599                 1.0895
 Frc consts  --      5.7403                 5.7853                 5.9853
 IR Inten    --      3.3143                23.4685                25.3711

                     67                     68                     69
                      A                      A                      A
 Frequencies --   3062.5673              3064.7861              3085.6238
 Red. masses --      1.0798                 1.0999                 1.1020
 Frc consts  --      5.9669                 6.0871                 6.1816
 IR Inten    --     51.8464                 4.1594                16.2155

                     70                     71                     72
                      A                      A                      A
 Frequencies --   3113.1997              3158.5821              3347.4419
 Red. masses --      1.0945                 1.0941                 1.0583
 Frc consts  --      6.2501                 6.4312                 6.9872
 IR Inten    --     15.6487                11.9020                20.2238

                     73                     74                     75
                      A                      A                      A
 Frequencies --   3487.8264              3525.2584              3565.3419
 Red. masses --      1.0494                 1.0815                 1.0921
 Frc consts  --      7.5217                 7.9190                 8.1795
 IR Inten    --      0.1575                 0.3704                 0.3610

 - Thermochemistry -
 -------------------
 Temperature   298.150 Kelvin.  Pressure   1.00000 Atm.
 Atom     1 has atomic number  6 and mass  12.00000

 Molecular mass:   156.13750 amu.
 Principal axes and moments of inertia in atomic units:
                           1         2         3
     Eigenvalues --   943.589104093.771534775.01402
           X            0.99995  -0.00477   0.00855
           Y            0.00472   0.99997   0.00600
           Z           -0.00858  -0.00596   0.99995
 This molecule is an asymmetric top.
 Rotational symmetry number  1.
 Warning -- assumption of classical behavior for rotation
           may cause significant error
 Rotational temperatures (Kelvin)      0.09179     0.02116     0.01814
 Rotational constants (GHZ):           1.91263     0.44085     0.37796
 Zero-point vibrational energy     628053.3 (Joules/Mol)
                                  150.10833 (Kcal/Mol)
 Warning -- explicit consideration of  20 degrees of freedom as
           vibrations may cause significant error
 Vibrational temperatures:     61.79    80.02    97.30   122.88   170.04
          (Kelvin)            214.52   272.23   323.12   349.95   401.15
                              428.77   454.61   480.74   546.45   555.85
                              576.43   686.20   727.64   790.58   829.25
                             1062.72  1122.79  1192.22  1240.44  1330.24
                             1341.30  1377.01  1447.91  1486.27  1518.87
                             1529.02  1553.09  1581.70  1597.82  1635.58
                             1660.82  1717.65  1760.73  1807.26  1834.67
                             1861.48  1882.01  1905.65  1925.33  1926.86
                             1963.55  1987.81  2017.17  2056.39  2106.44
                             2112.41  2123.49  2142.29  2145.78  2162.73
                             2176.98  2382.70  2398.61  3397.40  4140.02
                             4220.48  4274.72  4344.40  4364.68  4379.21
                             4393.36  4406.35  4409.54  4439.52  4479.20
                             4544.50  4816.22  5018.20  5072.06  5129.73

 Zero-point correction=                           0.239213 (Hartree/Particle)
 Thermal correction to Energy=                    0.252540
 Thermal correction to Enthalpy=                  0.253484
 Thermal correction to Gibbs Free Energy=         0.198844
 Sum of electronic and zero-point Energies=           -495.117228
 Sum of electronic and thermal Energies=              -495.103901
 Sum of electronic and thermal Enthalpies=            -495.102957
 Sum of electronic and thermal Free Energies=         -495.157598

                     E (Thermal)             CV                S
                      KCal/Mol        Cal/Mol-Kelvin    Cal/Mol-Kelvin
 Total                  158.471             48.129            115.001
 Electronic               0.000              0.000              0.000
 Translational            0.889              2.981             41.046
 Rotational               0.889              2.981             31.290
 Vibrational            156.694             42.167             42.665
 Vibration     1          0.595              1.980              5.118
 Vibration     2          0.596              1.975              4.607
 Vibration     3          0.598              1.970              4.221
 Vibration     4          0.601              1.959              3.763
 Vibration     5          0.608              1.934              3.130
 Vibration     6          0.618              1.904              2.684
 Vibration     7          0.633              1.855              2.236
 Vibration     8          0.649              1.804              1.922
 Vibration     9          0.659              1.774              1.779
 Vibration    10          0.679              1.713              1.541
 Vibration    11          0.691              1.677              1.428
 Vibration    12          0.703              1.643              1.331
 Vibration    13          0.716              1.607              1.240
 Vibration    14          0.750              1.513              1.040
 Vibration    15          0.755              1.499              1.014
 Vibration    16          0.766              1.469              0.960
 Vibration    17          0.834              1.301              0.718
 Vibration    18          0.861              1.237              0.644
 Vibration    19          0.905              1.141              0.545
 Vibration    20          0.933              1.082              0.492

 Optimization completed.
    -- Stationary point found.
 Normal termination of Gaussian 16 at Mon May 31 21:08:56 2021.
