 Gaussian 16, Revision A.03,
 Gaussian 16:  ES64L-G16RevA.03 25-Dec-2016

 -----------------------------
 # opt freq b3lyp/6-31g(2df,p)
 -----------------------------

 -------------------
 Title Card Required
 -------------------
 Symbolic Z-matrix:
 Charge =  0 Multiplicity = 1

 SCF Done:  E(RB3LYP) =  -431.472448374     A.U. after   15 cycles
 SCF Done:  E(RB3LYP) =  -431.503040608     A.U. after   13 cycles
 SCF Done:  E(RB3LYP) =  -431.511332957     A.U. after   13 cycles
 SCF Done:  E(RB3LYP) =  -431.516730799     A.U. after   13 cycles
 SCF Done:  E(RB3LYP) =  -431.517855588     A.U. after   12 cycles
 SCF Done:  E(RB3LYP) =  -431.518338440     A.U. after   12 cycles
 SCF Done:  E(RB3LYP) =  -431.518455514     A.U. after   11 cycles
 SCF Done:  E(RB3LYP) =  -431.518584900     A.U. after   11 cycles
 SCF Done:  E(RB3LYP) =  -431.518662718     A.U. after   11 cycles
 SCF Done:  E(RB3LYP) =  -431.518776542     A.U. after   10 cycles
 SCF Done:  E(RB3LYP) =  -431.519284022     A.U. after   12 cycles
 SCF Done:  E(RB3LYP) =  -431.520035342     A.U. after   14 cycles
 SCF Done:  E(RB3LYP) =  -431.520242843     A.U. after   11 cycles
 SCF Done:  E(RB3LYP) =  -431.520303849     A.U. after   11 cycles
 SCF Done:  E(RB3LYP) =  -431.520360947     A.U. after   11 cycles
 SCF Done:  E(RB3LYP) =  -431.520379692     A.U. after   10 cycles
 SCF Done:  E(RB3LYP) =  -431.520382779     A.U. after    9 cycles
 SCF Done:  E(RB3LYP) =  -431.520382943     A.U. after    8 cycles
 SCF Done:  E(RB3LYP) =  -431.520382976     A.U. after    7 cycles
 Optimization completed.
    -- Stationary point found.
 Normal termination of Gaussian 16 at Tue Jun  1 15:06:03 2021.

 ----------------------------------------------------------------------
 #N Geom=AllCheck Guess=TCheck SCRF=Check GenChk RB3LYP/6-31G(2df,p) Fr
 eq
 ----------------------------------------------------------------------

 Structure from the checkpoint file:  "CNpNCdNpNCCtN.chk"
 -------------------
 Title Card Required
 -------------------
 Charge =  0 Multiplicity = 1

                         Standard orientation:
 ---------------------------------------------------------------------
 Center     Atomic      Atomic             Coordinates (Angstroms)
 Number     Number       Type             X           Y           Z
 ---------------------------------------------------------------------
      1          6           0       -0.498774    2.241439   -0.015454
      2          7           0       -0.518758    0.794440    0.181499
      3          7           0       -1.704017    0.247163   -0.326034
      4          6           0       -2.258991   -0.818278    0.371621
      5          7           0       -3.097978   -1.677442   -0.040707
      6          7           0        0.627272    0.150165   -0.375577
      7          6           0        1.637914   -0.075557    0.661025
      8          6           0        2.854089   -0.630857    0.063807
      9          7           0        3.820634   -1.044195   -0.414280
     10          1           0       -1.380232    2.677299    0.456617
     11          1           0       -0.496209    2.519452   -1.084228
     12          1           0        0.397104    2.655571    0.455381
     13          1           0       -1.747290    0.179504   -1.341315
     14          1           0       -1.932356   -0.826949    1.412511
     15          1           0       -3.308489   -1.553881   -1.035022
     16          1           0        1.022762    0.712594   -1.130715
     17          1           0        1.234227   -0.788141    1.386829
     18          1           0        1.914985    0.833162    1.219636
 ---------------------------------------------------------------------

 SCF Done:  E(RB3LYP) =  -431.520382976     A.U. after    1 cycles

 The electronic state is 1-A.
 Alpha  occ. eigenvalues --  -14.41097 -14.38061 -14.37945 -14.34149 -14.29907
 Alpha  occ. eigenvalues --  -10.27187 -10.25117 -10.23404 -10.23235  -1.05225
 Alpha  occ. eigenvalues --   -0.94404  -0.91245  -0.87965  -0.80833  -0.74130
 Alpha  occ. eigenvalues --   -0.67095  -0.63012  -0.57203  -0.53615  -0.51897
 Alpha  occ. eigenvalues --   -0.50775  -0.49225  -0.46419  -0.43762  -0.42723
 Alpha  occ. eigenvalues --   -0.41437  -0.37176  -0.36557  -0.34407  -0.33913
 Alpha  occ. eigenvalues --   -0.28944  -0.27123  -0.26512  -0.24815
 Alpha virt. eigenvalues --    0.00842   0.02411   0.02791   0.05880   0.07702
 Alpha virt. eigenvalues --    0.09551   0.11551   0.12635   0.13376   0.13719
 Alpha virt. eigenvalues --    0.14612   0.15338   0.17480   0.18163   0.21082

 Mulliken charges:
               1
     1  C   -0.312438
     2  N   -0.061900
     3  N   -0.240455
     4  C    0.164753
     5  N   -0.473828
     6  N   -0.274970
     7  C   -0.230541
     8  C    0.245088
     9  N   -0.290554
    10  H    0.150914
    11  H    0.107921
    12  H    0.131691
    13  H    0.224558
    14  H    0.117962
    15  H    0.204653
    16  H    0.225021
    17  H    0.172152
    18  H    0.139973
 Sum of Mulliken charges =  -0.00000

 Dipole moment (field-independent basis, Debye):
    X=             -0.6916    Y=              4.5669    Z=             -0.2721  Tot=              4.6269
 Quadrupole moment (field-independent basis, Debye-Ang):
   XX=            -76.8125   YY=            -56.5258   ZZ=            -48.5459
   XY=             -0.0582   XZ=              8.5807   YZ=             -1.0290

  Exact polarizability:  97.066   5.253  73.702   0.122   1.140  64.115
 Approx polarizability: 130.354   7.252 106.522  -4.660   4.366 101.098

                      1                      2                      3
                      A                      A                      A
 Frequencies --     41.9605                71.9293                92.4516
 Red. masses --      6.8428                 2.7498                 4.1304
 Frc consts  --      0.0071                 0.0084                 0.0208
 IR Inten    --      5.2319                 4.5065                 0.4704

                      4                      5                      6
                      A                      A                      A
 Frequencies --    130.8944               167.6267               210.7267
 Red. masses --      3.3983                 2.1280                 2.9003
 Frc consts  --      0.0343                 0.0352                 0.0759
 IR Inten    --     11.8393                 2.0375                 0.1504

                      7                      8                      9
                      A                      A                      A
 Frequencies --    258.8395               333.1866               380.3195
 Red. masses --      1.1654                 3.8701                 3.0811
 Frc consts  --      0.0460                 0.2531                 0.2626
 IR Inten    --      0.4497                 7.3153                 1.5720

                     10                     11                     12
                      A                      A                      A
 Frequencies --    396.1639               426.7321               487.5251
 Red. masses --      3.1722                 3.5369                 3.3102
 Frc consts  --      0.2933                 0.3795                 0.4636
 IR Inten    --      1.9657                 6.1114                 3.7905

                     13                     14                     15
                      A                      A                      A
 Frequencies --    538.4706               581.0287               650.9428
 Red. masses --      2.4213                 3.1082                 2.5520
 Frc consts  --      0.4136                 0.6182                 0.6371
 IR Inten    --     17.4607                32.3725                51.7219

                     16                     17                     18
                      A                      A                      A
 Frequencies --    775.0521               845.1433               921.0760
 Red. masses --      1.9367                 2.0537                 3.3588
 Frc consts  --      0.6855                 0.8642                 1.6789
 IR Inten    --     67.6967                50.4205                 9.7524

                     19                     20                     21
                      A                      A                      A
 Frequencies --    975.9134              1004.7782              1053.4165
 Red. masses --      2.4076                 2.2515                 1.8438
 Frc consts  --      1.3510                 1.3393                 1.2055
 IR Inten    --     12.1526                 9.4057                28.5775

                     22                     23                     24
                      A                      A                      A
 Frequencies --   1094.9019              1106.2672              1117.0317
 Red. masses --      1.1216                 2.9246                 2.1744
 Frc consts  --      0.7922                 2.1088                 1.5985
 IR Inten    --     44.3095                14.6484                20.3159

                     25                     26                     27
                      A                      A                      A
 Frequencies --   1149.5465              1193.0493              1213.7842
 Red. masses --      1.8921                 2.0276                 1.6357
 Frc consts  --      1.4732                 1.7004                 1.4199
 IR Inten    --     17.3479                33.1173                40.3449

                     28                     29                     30
                      A                      A                      A
 Frequencies --   1269.5710              1290.3184              1362.5489
 Red. masses --      1.6235                 1.9717                 1.3494
 Frc consts  --      1.5417                 1.9341                 1.4760
 IR Inten    --     11.3271               155.9187                13.4231

                     31                     32                     33
                      A                      A                      A
 Frequencies --   1393.0725              1441.9441              1462.3101
 Red. masses --      1.2207                 1.1893                 1.2410
 Frc consts  --      1.3958                 1.4570                 1.5635
 IR Inten    --     27.5855                 0.3160                 5.4731

                     34                     35                     36
                      A                      A                      A
 Frequencies --   1483.4075              1489.2967              1495.5114
 Red. masses --      1.0789                 1.0723                 1.0505
 Frc consts  --      1.3988                 1.4013                 1.3842
 IR Inten    --      2.6227                 2.3845                 3.3745

                     37                     38                     39
                      A                      A                      A
 Frequencies --   1526.4376              1730.5096              2370.0579
 Red. masses --      1.2198                 6.1965                12.6245
 Frc consts  --      1.6745                10.9331                41.7813
 IR Inten    --      9.9470               250.1686                 2.6663

                     40                     41                     42
                      A                      A                      A
 Frequencies --   2958.0946              2977.7051              3082.9984
 Red. masses --      1.0564                 1.0710                 1.0879
 Frc consts  --      5.4463                 5.5949                 6.0925
 IR Inten    --     56.7475                27.2513                 3.1619

                     43                     44                     45
                      A                      A                      A
 Frequencies --   3085.9830              3134.7183              3143.0914
 Red. masses --      1.0780                 1.0891                 1.1018
 Frc consts  --      6.0484                 6.3056                 6.4130
 IR Inten    --     24.1803                13.7713                13.9204

                     46                     47                     48
                      A                      A                      A
 Frequencies --   3423.0163              3429.2224              3468.2064
 Red. masses --      1.0743                 1.0738                 1.0745
 Frc consts  --      7.4162                 7.4401                 7.6149
 IR Inten    --      2.3705                 5.7490                 9.5661

 - Thermochemistry -
 -------------------
 Temperature   298.150 Kelvin.  Pressure   1.00000 Atm.
 Atom     1 has atomic number  6 and mass  12.00000

 Molecular mass:   127.08580 amu.
 Principal axes and moments of inertia in atomic units:
                           1         2         3
     Eigenvalues --   670.272292263.360632758.86763
           X            0.99991   0.00825   0.01016
           Y           -0.00818   0.99994  -0.00665
           Z           -0.01021   0.00657   0.99993
 This molecule is an asymmetric top.
 Rotational symmetry number  1.
 Warning -- assumption of classical behavior for rotation
           may cause significant error
 Rotational temperatures (Kelvin)      0.12922     0.03827     0.03139
 Rotational constants (GHZ):           2.69255     0.79737     0.65416
 Zero-point vibrational energy     384221.3 (Joules/Mol)
                                   91.83109 (Kcal/Mol)
 Warning -- explicit consideration of  14 degrees of freedom as
           vibrations may cause significant error
 Vibrational temperatures:     60.37   103.49   133.02   188.33   241.18
          (Kelvin)            303.19   372.41   479.38   547.19   569.99
                              613.97   701.44   774.74   835.97   936.56
                             1115.13  1215.97  1325.22  1404.12  1445.65
                             1515.63  1575.32  1591.67  1607.16  1653.94
                             1716.53  1746.36  1826.63  1856.48  1960.40
                             2004.32  2074.64  2103.94  2134.29  2142.77
                             2151.71  2196.20  2489.82  3409.98  4256.04
                             4284.25  4435.75  4440.04  4510.16  4522.21
                             4924.96  4933.89  4989.98

 Zero-point correction=                           0.146342 (Hartree/Particle)
 Thermal correction to Energy=                    0.156426
 Thermal correction to Enthalpy=                  0.157370
 Thermal correction to Gibbs Free Energy=         0.109972
 Sum of electronic and zero-point Energies=           -431.374041
 Sum of electronic and thermal Energies=              -431.363957
 Sum of electronic and thermal Enthalpies=            -431.363013
 Sum of electronic and thermal Free Energies=         -431.410411

                     E (Thermal)             CV                S
                      KCal/Mol        Cal/Mol-Kelvin    Cal/Mol-Kelvin
 Total                   98.159             35.067             99.758
 Electronic               0.000              0.000              0.000
 Translational            0.889              2.981             40.432
 Rotational               0.889              2.981             29.816
 Vibrational             96.381             29.105             29.510
 Vibration     1          0.595              1.980              5.164
 Vibration     2          0.598              1.967              4.100
 Vibration     3          0.602              1.955              3.608
 Vibration     4          0.612              1.922              2.933
 Vibration     5          0.624              1.882              2.462
 Vibration     6          0.643              1.824              2.037
 Vibration     7          0.668              1.748              1.670
 Vibration     8          0.715              1.609              1.245
 Vibration     9          0.750              1.512              1.038
 Vibration    10          0.763              1.478              0.977
 Vibration    11          0.788              1.412              0.869
 Vibration    12          0.843              1.278              0.690
 Vibration    13          0.894              1.165              0.569
 Vibration    14          0.938              1.072              0.483

 Optimization completed.
    -- Stationary point found.
 Normal termination of Gaussian 16 at Tue Jun  1 15:29:28 2021.
