 Gaussian 16, Revision A.03,
 Gaussian 16:  ES64L-G16RevA.03 25-Dec-2016

 -----------------------------
 # opt freq b3lyp/6-31g(2df,p)
 -----------------------------

 -------------------
 Title Card Required
 -------------------
 Symbolic Z-matrix:
 Charge =  0 Multiplicity = 1

 SCF Done:  E(RB3LYP) =  -376.336360076     A.U. after   13 cycles
 SCF Done:  E(RB3LYP) =  -376.342816906     A.U. after   11 cycles
 SCF Done:  E(RB3LYP) =  -376.344827454     A.U. after   12 cycles
 SCF Done:  E(RB3LYP) =  -376.346000819     A.U. after   11 cycles
 SCF Done:  E(RB3LYP) =  -376.346424594     A.U. after   10 cycles
 SCF Done:  E(RB3LYP) =  -376.346564484     A.U. after   11 cycles
 SCF Done:  E(RB3LYP) =  -376.346631375     A.U. after   11 cycles
 SCF Done:  E(RB3LYP) =  -376.346650631     A.U. after    9 cycles
 SCF Done:  E(RB3LYP) =  -376.346659459     A.U. after    9 cycles
 SCF Done:  E(RB3LYP) =  -376.346661262     A.U. after    8 cycles
 SCF Done:  E(RB3LYP) =  -376.346661479     A.U. after    7 cycles
 Optimization completed.
    -- Stationary point found.
 Normal termination of Gaussian 16 at Tue Jun  1 16:03:53 2021.

 ----------------------------------------------------------------------
 #N Geom=AllCheck Guess=TCheck SCRF=Check GenChk RB3LYP/6-31G(2df,p) Fr
 eq
 ----------------------------------------------------------------------

 Structure from the checkpoint file:  "CNpOpCNpNpN.chk"
 -------------------
 Title Card Required
 -------------------
 Charge =  0 Multiplicity = 1

                         Standard orientation:
 ---------------------------------------------------------------------
 Center     Atomic      Atomic             Coordinates (Angstroms)
 Number     Number       Type             X           Y           Z
 ---------------------------------------------------------------------
      1          6           0       -2.399933   -0.774542    0.190196
      2          7           0       -1.220882   -0.147221   -0.397064
      3          8           0       -1.350791    1.270307   -0.122234
      4          6           0        0.000169   -0.611597    0.258796
      5          7           0        1.201391   -0.024371   -0.338272
      6          7           0        1.535635    1.168253    0.446573
      7          7           0        2.347741   -0.861763   -0.183722
      8          1           0       -3.290937   -0.385020   -0.306160
      9          1           0       -2.488313   -0.591999    1.272655
     10          1           0       -2.344216   -1.852920    0.012746
     11          1           0       -1.330358    1.647251   -1.009022
     12          1           0        0.034492   -1.690595    0.086406
     13          1           0       -0.017930   -0.419493    1.351576
     14          1           0        0.706232    1.755768    0.363709
     15          1           0        2.261958    1.623541   -0.104797
     16          1           0        2.244077   -1.628297   -0.841445
     17          1           0        2.382710   -1.248138    0.765653
 ---------------------------------------------------------------------

 SCF Done:  E(RB3LYP) =  -376.346661479     A.U. after    1 cycles

 The electronic state is 1-A.
 Alpha  occ. eigenvalues --  -19.16841 -14.37352 -14.36435 -14.33212 -14.32044
 Alpha  occ. eigenvalues --  -10.22848 -10.20648  -1.06212  -0.99086  -0.86107
 Alpha  occ. eigenvalues --   -0.84306  -0.74333  -0.66020  -0.60562  -0.52894
 Alpha  occ. eigenvalues --   -0.50770  -0.49214  -0.47474  -0.45168  -0.42841
 Alpha  occ. eigenvalues --   -0.40863  -0.40530  -0.38729  -0.37818  -0.31963
 Alpha  occ. eigenvalues --   -0.29623  -0.25435  -0.23417  -0.19148
 Alpha virt. eigenvalues --    0.06389   0.09227   0.09659   0.11972   0.12998
 Alpha virt. eigenvalues --    0.13702   0.14874   0.16304   0.17506   0.18360
 Alpha virt. eigenvalues --    0.18797   0.20040   0.21225   0.22826   0.24470

 Mulliken charges:
               1
     1  C   -0.284654
     2  N   -0.040139
     3  O   -0.413526
     4  C   -0.010250
     5  N   -0.126032
     6  N   -0.462855
     7  N   -0.434657
     8  H    0.126528
     9  H    0.112642
    10  H    0.122750
    11  H    0.304829
    12  H    0.098114
    13  H    0.082189
    14  H    0.238697
    15  H    0.236507
    16  H    0.236196
    17  H    0.213660
 Sum of Mulliken charges =  -0.00000

 Dipole moment (field-independent basis, Debye):
    X=             -1.4130    Y=             -1.0861    Z=             -0.6055  Tot=              1.8822
 Quadrupole moment (field-independent basis, Debye-Ang):
   XX=            -45.1577   YY=            -35.9127   ZZ=            -44.5742
   XY=             -0.8656   XZ=              0.2379   YZ=             -3.6541

  Exact polarizability:  68.850  -0.118  63.424  -0.587  -1.394  47.669
 Approx polarizability:  83.857  -2.035  92.402  -0.843  -0.851  74.007

                      1                      2                      3
                      A                      A                      A
 Frequencies --     53.3249               136.8394               213.4040
 Red. masses --      3.5306                 2.8895                 2.4083
 Frc consts  --      0.0059                 0.0319                 0.0646
 IR Inten    --      4.9502                 1.1826                 1.3672

                      4                      5                      6
                      A                      A                      A
 Frequencies --    246.3954               268.9916               318.6341
 Red. masses --      1.0870                 1.2049                 1.2770
 Frc consts  --      0.0389                 0.0514                 0.0764
 IR Inten    --      0.1469                20.0733                38.2810

                      7                      8                      9
                      A                      A                      A
 Frequencies --    353.9600               376.5154               394.4797
 Red. masses --      4.5140                 2.0889                 1.4984
 Frc consts  --      0.3332                 0.1745                 0.1374
 IR Inten    --     13.3341                19.4858                95.6462

                     10                     11                     12
                      A                      A                      A
 Frequencies --    436.0941               478.5548               500.6960
 Red. masses --      2.2207                 2.4669                 2.6459
 Frc consts  --      0.2488                 0.3329                 0.3908
 IR Inten    --     44.0308                 8.3547                 3.5942

                     13                     14                     15
                      A                      A                      A
 Frequencies --    587.0030               838.2089               868.5155
 Red. masses --      3.4441                 6.1164                 4.8018
 Frc consts  --      0.6992                 2.5319                 2.1341
 IR Inten    --      1.6102                25.1127                27.0203

                     16                     17                     18
                      A                      A                      A
 Frequencies --    919.0355               995.5334              1026.9621
 Red. masses --      2.3594                 2.5806                 1.8314
 Frc consts  --      1.1741                 1.5069                 1.1380
 IR Inten    --     66.4464                20.4860                15.4324

                     19                     20                     21
                      A                      A                      A
 Frequencies --   1056.2720              1089.7384              1144.3731
 Red. masses --      3.0538                 2.1040                 1.4677
 Frc consts  --      2.0075                 1.4721                 1.1324
 IR Inten    --      8.1148                85.2684                64.4190

                     22                     23                     24
                      A                      A                      A
 Frequencies --   1154.0328              1209.2044              1239.2569
 Red. masses --      1.3910                 2.2137                 2.3388
 Frc consts  --      1.0915                 1.9071                 2.1162
 IR Inten    --      2.4049                 8.1824                10.7473

                     25                     26                     27
                      A                      A                      A
 Frequencies --   1280.8844              1345.6084              1363.7019
 Red. masses --      1.1399                 1.2792                 1.2076
 Frc consts  --      1.1019                 1.3647                 1.3231
 IR Inten    --      7.3327                 3.2178                41.9585

                     28                     29                     30
                      A                      A                      A
 Frequencies --   1395.2221              1418.5749              1446.2071
 Red. masses --      1.2983                 1.3465                 1.2122
 Frc consts  --      1.4891                 1.5965                 1.4938
 IR Inten    --     19.1856                 8.1933                 1.5797

                     31                     32                     33
                      A                      A                      A
 Frequencies --   1466.5837              1480.4445              1503.6130
 Red. masses --      1.0812                 1.0618                 1.0514
 Frc consts  --      1.3702                 1.3712                 1.4006
 IR Inten    --      4.5457                 5.3458                 3.7561

                     34                     35                     36
                      A                      A                      A
 Frequencies --   1633.4672              1638.0492              2892.7732
 Red. masses --      1.0794                 1.0785                 1.0693
 Frc consts  --      1.6968                 1.7050                 5.2721
 IR Inten    --     48.9438                 5.2405                51.6196

                     37                     38                     39
                      A                      A                      A
 Frequencies --   2985.5722              3082.1731              3091.2636
 Red. masses --      1.0499                 1.0860                 1.0873
 Frc consts  --      5.5138                 6.0784                 6.1218
 IR Inten    --     51.9587                 7.2182                31.2965

                     40                     41                     42
                      A                      A                      A
 Frequencies --   3128.6407              3356.4603              3443.0484
 Red. masses --      1.1023                 1.0561                 1.0490
 Frc consts  --      6.3571                 7.0103                 7.3267
 IR Inten    --     20.5911                22.9933                11.2112

                     43                     44                     45
                      A                      A                      A
 Frequencies --   3533.3167              3553.4188              3805.0802
 Red. masses --      1.0927                 1.0841                 1.0678
 Frc consts  --      8.0373                 8.0655                 9.1093
 IR Inten    --     12.9478                 1.8664                51.6938

 - Thermochemistry -
 -------------------
 Temperature   298.150 Kelvin.  Pressure   1.00000 Atm.
 Atom     1 has atomic number  6 and mass  12.00000

 Molecular mass:   106.08546 amu.
 Principal axes and moments of inertia in atomic units:
                           1         2         3
     Eigenvalues --   362.596141089.365501348.33168
           X            0.99988   0.01529  -0.00372
           Y           -0.01540   0.99943  -0.03020
           Z            0.00326   0.03025   0.99954
 This molecule is an asymmetric top.
 Rotational symmetry number  1.
 Rotational temperatures (Kelvin)      0.23887     0.07951     0.06424
 Rotational constants (GHZ):           4.97728     1.65669     1.33850
 Zero-point vibrational energy     387291.8 (Joules/Mol)
                                   92.56496 (Kcal/Mol)
 Warning -- explicit consideration of  13 degrees of freedom as
           vibrations may cause significant error
 Vibrational temperatures:     76.72   196.88   307.04   354.51   387.02
          (Kelvin)            458.44   509.27   541.72   567.57   627.44
                              688.53   720.39   844.57  1206.00  1249.60
                             1322.29  1432.35  1477.57  1519.74  1567.89
                             1646.50  1660.40  1739.78  1783.01  1842.91
                             1936.03  1962.06  2007.41  2041.01  2080.77
                             2110.09  2130.03  2163.36  2350.19  2356.79
                             4162.06  4295.57  4434.56  4447.64  4501.42
                             4829.20  4953.78  5083.65  5112.58  5474.66

 Zero-point correction=                           0.147512 (Hartree/Particle)
 Thermal correction to Energy=                    0.156089
 Thermal correction to Enthalpy=                  0.157033
 Thermal correction to Gibbs Free Energy=         0.114797
 Sum of electronic and zero-point Energies=           -376.199150
 Sum of electronic and thermal Energies=              -376.190573
 Sum of electronic and thermal Enthalpies=            -376.189629
 Sum of electronic and thermal Free Energies=         -376.231864

                     E (Thermal)             CV                S
                      KCal/Mol        Cal/Mol-Kelvin    Cal/Mol-Kelvin
 Total                   97.947             31.220             88.892
 Electronic               0.000              0.000              0.000
 Translational            0.889              2.981             39.894
 Rotational               0.889              2.981             27.768
 Vibrational             96.170             25.259             21.230
 Vibration     1          0.596              1.976              4.690
 Vibration     2          0.614              1.917              2.848
 Vibration     3          0.644              1.821              2.014
 Vibration     4          0.661              1.769              1.756
 Vibration     5          0.673              1.730              1.603
 Vibration     6          0.705              1.638              1.317
 Vibration     7          0.730              1.567              1.149
 Vibration     8          0.747              1.520              1.053
 Vibration     9          0.761              1.482              0.983
 Vibration    10          0.797              1.392              0.839
 Vibration    11          0.835              1.298              0.714
 Vibration    12          0.856              1.248              0.656
 Vibration    13          0.944              1.060              0.473

 Optimization completed.
    -- Stationary point found.
 Normal termination of Gaussian 16 at Tue Jun  1 16:19:40 2021.
