 Gaussian 16, Revision A.03,
 Gaussian 16:  ES64L-G16RevA.03 25-Dec-2016

 -----------------------------
 # opt freq b3lyp/6-31g(2df,p)
 -----------------------------

 -------------------
 Title Card Required
 -------------------
 Symbolic Z-matrix:
 Charge =  0 Multiplicity = 1

 SCF Done:  E(RB3LYP) =  -303.420947109     A.U. after   15 cycles
 SCF Done:  E(RB3LYP) =  -303.452340173     A.U. after   13 cycles
 SCF Done:  E(RB3LYP) =  -303.455198416     A.U. after   12 cycles
 SCF Done:  E(RB3LYP) =  -303.446785045     A.U. after   15 cycles
 SCF Done:  E(RB3LYP) =  -303.456499523     A.U. after   13 cycles
 SCF Done:  E(RB3LYP) =  -303.458898276     A.U. after   13 cycles
 SCF Done:  E(RB3LYP) =  -303.454262207     A.U. after   15 cycles
 SCF Done:  E(RB3LYP) =  -303.460283482     A.U. after   12 cycles
 SCF Done:  E(RB3LYP) =  -303.462474418     A.U. after   12 cycles
 SCF Done:  E(RB3LYP) =  -303.463720301     A.U. after   12 cycles
 SCF Done:  E(RB3LYP) =  -303.466063104     A.U. after   12 cycles
 SCF Done:  E(RB3LYP) =  -303.466068778     A.U. after   11 cycles
 SCF Done:  E(RB3LYP) =  -303.466111063     A.U. after    9 cycles
 SCF Done:  E(RB3LYP) =  -303.466115022     A.U. after    8 cycles
 SCF Done:  E(RB3LYP) =  -303.466116830     A.U. after    8 cycles
 SCF Done:  E(RB3LYP) =  -303.466117230     A.U. after    8 cycles
 SCF Done:  E(RB3LYP) =  -303.466117488     A.U. after    7 cycles
 SCF Done:  E(RB3LYP) =  -303.466117651     A.U. after    7 cycles
 SCF Done:  E(RB3LYP) =  -303.466117712     A.U. after    7 cycles
 Optimization completed.
    -- Stationary point found.
 Normal termination of Gaussian 16 at Tue Jun  1 22:40:28 2021.

 ----------------------------------------------------------------------
 #N Geom=AllCheck Guess=TCheck SCRF=Check GenChk RB3LYP/6-31G(2df,p) Fr
 eq
 ----------------------------------------------------------------------

 Structure from the checkpoint file:  "CtCCNpNpCtC.chk"
 -------------------
 Title Card Required
 -------------------
 Charge =  0 Multiplicity = 1

                         Standard orientation:
 ---------------------------------------------------------------------
 Center     Atomic      Atomic             Coordinates (Angstroms)
 Number     Number       Type             X           Y           Z
 ---------------------------------------------------------------------
      1          6           0        2.983169   -0.230000    0.303683
      2          6           0        1.852150   -0.463772   -0.027177
      3          6           0        0.479770   -0.729794   -0.445795
      4          7           0       -0.466739    0.211575    0.177559
      5          7           0       -0.260548    1.592487   -0.089839
      6          6           0       -1.757915   -0.168859    0.167062
      7          6           0       -2.899260   -0.552295    0.168580
      8          1           0        3.984273   -0.039502    0.603591
      9          1           0        0.180011   -1.739587   -0.148466
     10          1           0        0.411742   -0.682396   -1.546609
     11          1           0       -0.141661    1.731919   -1.096376
     12          1           0        0.615740    1.849200    0.356664
     13          1           0       -3.906582   -0.879746    0.219043
 ---------------------------------------------------------------------

 SCF Done:  E(RB3LYP) =  -303.466117712     A.U. after    1 cycles

 The electronic state is 1-A.
 Alpha  occ. eigenvalues --  -14.38985 -14.35505 -10.25302 -10.19847 -10.19845
 Alpha  occ. eigenvalues --  -10.19136 -10.16157  -1.00391  -0.82942  -0.78438
 Alpha  occ. eigenvalues --   -0.72711  -0.68906  -0.55372  -0.54695  -0.51534
 Alpha  occ. eigenvalues --   -0.50859  -0.49471  -0.46415  -0.44315  -0.33234
 Alpha  occ. eigenvalues --   -0.29470  -0.28287  -0.27568  -0.26556  -0.21225
 Alpha virt. eigenvalues --    0.02081   0.03825   0.05660   0.07344   0.10771
 Alpha virt. eigenvalues --    0.11654   0.12970   0.13648   0.14609   0.15867
 Alpha virt. eigenvalues --    0.18454   0.24184   0.25864   0.26759   0.37012

 Mulliken charges:
               1
     1  C   -0.423546
     2  C    0.290203
     3  C   -0.322405
     4  N   -0.225820
     5  N   -0.469646
     6  C    0.231842
     7  C   -0.245087
     8  H    0.206981
     9  H    0.160262
    10  H    0.127946
    11  H    0.231802
    12  H    0.255202
    13  H    0.182266
 Sum of Mulliken charges =  -0.00000

 Dipole moment (field-independent basis, Debye):
    X=              2.0093    Y=             -0.2898    Z=             -1.2356  Tot=              2.3766
 Quadrupole moment (field-independent basis, Debye-Ang):
   XX=            -35.1402   YY=            -40.2434   ZZ=            -40.8406
   XY=              4.3537   XZ=              1.7879   YZ=             -0.8468

  Exact polarizability:  99.976  11.632  49.493   3.267   0.045  40.735
 Approx polarizability: 149.901  24.755  72.575   9.726   1.611  61.840

                      1                      2                      3
                      A                      A                      A
 Frequencies --     66.0132               127.0850               197.7458
 Red. masses --      3.5522                 4.1574                 3.9332
 Frc consts  --      0.0091                 0.0396                 0.0906
 IR Inten    --      0.5094                 0.5830                 1.3791

                      4                      5                      6
                      A                      A                      A
 Frequencies --    225.4347               334.7755               347.4323
 Red. masses --      2.6717                 2.5317                 1.4226
 Frc consts  --      0.0800                 0.1672                 0.1012
 IR Inten    --     15.5595                 8.9214                 6.0831

                      7                      8                      9
                      A                      A                      A
 Frequencies --    363.9904               395.6767               507.6877
 Red. masses --      2.8370                 1.6510                 3.9861
 Frc consts  --      0.2215                 0.1523                 0.6053
 IR Inten    --     22.7009                67.9163                 5.1193

                     10                     11                     12
                      A                      A                      A
 Frequencies --    531.5350               603.2006               620.8748
 Red. masses --      3.9375                 5.8435                 1.2037
 Frc consts  --      0.6554                 1.2527                 0.2734
 IR Inten    --      2.3050                 2.5006                45.2673

                     13                     14                     15
                      A                      A                      A
 Frequencies --    680.6852               703.8984               809.3292
 Red. masses --      1.2481                 1.2589                 6.0058
 Frc consts  --      0.3407                 0.3675                 2.3178
 IR Inten    --     33.1375                32.0496                28.6313

                     16                     17                     18
                      A                      A                      A
 Frequencies --    957.0927               968.8890               992.7699
 Red. masses --      1.9934                 2.7901                 1.7775
 Frc consts  --      1.0758                 1.5432                 1.0322
 IR Inten    --     87.0819                55.4449                 8.2657

                     19                     20                     21
                      A                      A                      A
 Frequencies --   1133.7115              1199.4713              1318.1745
 Red. masses --      6.1595                 1.3624                 1.7066
 Frc consts  --      4.6645                 1.1549                 1.7471
 IR Inten    --     39.9489                 7.2838                24.8493

                     22                     23                     24
                      A                      A                      A
 Frequencies --   1338.0208              1385.4475              1470.4651
 Red. masses --      1.1691                 1.5967                 1.0823
 Frc consts  --      1.2332                 1.8058                 1.3788
 IR Inten    --      5.4301                48.0703                 4.6669

                     25                     26                     27
                      A                      A                      A
 Frequencies --   1677.8790              2241.8142              2253.6459
 Red. masses --      1.0835                 5.9005                 6.2593
 Frc consts  --      1.7972                17.4719                18.7306
 IR Inten    --      7.1074                 9.5582                88.9397

                     28                     29                     30
                      A                      A                      A
 Frequencies --   2954.0488              3078.2752              3396.3348
 Red. masses --      1.0716                 1.0876                 1.0549
 Frc consts  --      5.5094                 6.0722                 7.1697
 IR Inten    --     40.0207                 4.4709                11.8584

                     31                     32                     33
                      A                      A                      A
 Frequencies --   3503.1143              3515.8533              3538.9411
 Red. masses --      1.1636                 1.1560                 1.0861
 Frc consts  --      8.4132                 8.4189                 8.0142
 IR Inten    --     71.2430               102.9169                 3.9183

 - Thermochemistry -
 -------------------
 Temperature   298.150 Kelvin.  Pressure   1.00000 Atm.
 Atom     1 has atomic number  6 and mass  12.00000

 Molecular mass:    94.05310 amu.
 Principal axes and moments of inertia in atomic units:
                           1         2         3
     Eigenvalues --   247.677821191.245641375.45462
           X            0.99990   0.01347   0.00387
           Y           -0.01346   0.99991  -0.00254
           Z           -0.00391   0.00248   0.99999
 This molecule is an asymmetric top.
 Rotational symmetry number  1.
 Rotational temperatures (Kelvin)      0.34970     0.07271     0.06297
 Rotational constants (GHZ):           7.28665     1.51500     1.31211
 Zero-point vibrational energy     259824.8 (Joules/Mol)
                                   62.09962 (Kcal/Mol)
 Warning -- explicit consideration of  11 degrees of freedom as
           vibrations may cause significant error
 Vibrational temperatures:     94.98   182.85   284.51   324.35   481.67
          (Kelvin)            499.88   523.70   569.29   730.45   764.76
                              867.87   893.30   979.35  1012.75  1164.44
                             1377.04  1394.02  1428.37  1631.16  1725.77
                             1896.56  1925.11  1993.35  2115.67  2414.09
                             3225.47  3242.49  4250.22  4428.95  4886.57
                             5040.20  5058.53  5091.75

 Zero-point correction=                           0.098962 (Hartree/Particle)
 Thermal correction to Energy=                    0.107001
 Thermal correction to Enthalpy=                  0.107946
 Thermal correction to Gibbs Free Energy=         0.066956
 Sum of electronic and zero-point Energies=           -303.367156
 Sum of electronic and thermal Energies=              -303.359116
 Sum of electronic and thermal Enthalpies=            -303.358172
 Sum of electronic and thermal Free Energies=         -303.399161

                     E (Thermal)             CV                S
                      KCal/Mol        Cal/Mol-Kelvin    Cal/Mol-Kelvin
 Total                   67.144             28.661             86.269
 Electronic               0.000              0.000              0.000
 Translational            0.889              2.981             39.535
 Rotational               0.889              2.981             27.498
 Vibrational             65.367             22.700             19.236
 Vibration     1          0.597              1.970              4.269
 Vibration     2          0.611              1.926              2.990
 Vibration     3          0.637              1.843              2.154
 Vibration     4          0.650              1.802              1.915
 Vibration     5          0.716              1.606              1.237
 Vibration     6          0.725              1.580              1.178
 Vibration     7          0.738              1.546              1.105
 Vibration     8          0.762              1.479              0.979
 Vibration     9          0.863              1.233              0.639
 Vibration    10          0.887              1.180              0.584
 Vibration    11          0.962              1.025              0.444

 Optimization completed.
    -- Stationary point found.
 Normal termination of Gaussian 16 at Tue Jun  1 22:52:19 2021.
