 Gaussian 16, Revision A.03,
 Gaussian 16:  ES64L-G16RevA.03 25-Dec-2016

 -----------------------------
 # opt freq b3lyp/6-31g(2df,p)
 -----------------------------

 -------------------
 Title Card Required
 -------------------
 Symbolic Z-matrix:
 Charge =  0 Multiplicity = 1

 SCF Done:  E(RB3LYP) =  -384.605383040     A.U. after   13 cycles
 SCF Done:  E(RB3LYP) =  -384.632673644     A.U. after   12 cycles
 SCF Done:  E(RB3LYP) =  -384.633044627     A.U. after   12 cycles
 SCF Done:  E(RB3LYP) =  -384.623020485     A.U. after   13 cycles
 SCF Done:  E(RB3LYP) =  -384.633756162     A.U. after   11 cycles
 SCF Done:  E(RB3LYP) =  -384.633170429     A.U. after   12 cycles
 SCF Done:  E(RB3LYP) =  -384.634243330     A.U. after   10 cycles
 SCF Done:  E(RB3LYP) =  -384.634347010     A.U. after   10 cycles
 SCF Done:  E(RB3LYP) =  -384.634362621     A.U. after    9 cycles
 SCF Done:  E(RB3LYP) =  -384.634372153     A.U. after    9 cycles
 SCF Done:  E(RB3LYP) =  -384.634376218     A.U. after    7 cycles
 SCF Done:  E(RB3LYP) =  -384.634376433     A.U. after    8 cycles
 SCF Done:  E(RB3LYP) =  -384.634377333     A.U. after    7 cycles
 SCF Done:  E(RB3LYP) =  -384.634377499     A.U. after    7 cycles
 SCF Done:  E(RB3LYP) =  -384.634377528     A.U. after    6 cycles
 Optimization completed.
    -- Stationary point found.
 Normal termination of Gaussian 16 at Mon May 31 15:09:33 2021.

 ----------------------------------------------------------------------
 #N Geom=AllCheck Guess=TCheck SCRF=Check GenChk RB3LYP/6-31G(2df,p) Fr
 eq
 ----------------------------------------------------------------------

 Structure from the checkpoint file:  "CtCCCCpCpCpNpN.chk"
 -------------------
 Title Card Required
 -------------------
 Charge =  0 Multiplicity = 1

                         Standard orientation:
 ---------------------------------------------------------------------
 Center     Atomic      Atomic             Coordinates (Angstroms)
 Number     Number       Type             X           Y           Z
 ---------------------------------------------------------------------
      1          6           0        4.172422   -0.662957   -0.155713
      2          6           0        3.149889   -0.083454    0.096876
      3          6           0        1.891407    0.593701    0.386214
      4          6           0        0.671083   -0.158124   -0.187355
      5          6           0       -0.685517    0.450850    0.206740
      6          6           0       -0.826956    1.902672   -0.277546
      7          6           0       -1.865999   -0.417228   -0.308262
      8          7           0       -1.800686   -1.852143    0.011576
      9          7           0       -3.120912    0.161156    0.161733
     10          1           0        5.083218   -1.163216   -0.372862
     11          1           0        1.932378    1.613105   -0.013778
     12          1           0        1.775910    0.698570    1.473708
     13          1           0        0.727370   -1.194683    0.158214
     14          1           0        0.758332   -0.188604   -1.281513
     15          1           0       -0.748286    0.443243    1.308737
     16          1           0       -0.678868    1.961309   -1.363010
     17          1           0       -0.092666    2.562917    0.193029
     18          1           0       -1.824606    2.284249   -0.057354
     19          1           0       -1.873695   -0.357279   -1.406095
     20          1           0       -1.603205   -1.982004    1.002185
     21          1           0       -1.045565   -2.305588   -0.494760
     22          1           0       -3.122628    0.178632    1.179822
     23          1           0       -3.874477   -0.466496   -0.105208
 ---------------------------------------------------------------------

 SCF Done:  E(RB3LYP) =  -384.634377528     A.U. after    1 cycles

 The electronic state is 1-A.
 Alpha  occ. eigenvalues --  -14.30829 -14.30501 -10.23253 -10.20702 -10.18893
 Alpha  occ. eigenvalues --  -10.18754 -10.17817 -10.16764 -10.16679  -0.91451
 Alpha  occ. eigenvalues --   -0.83202  -0.81270  -0.76193  -0.70858  -0.65840
 Alpha  occ. eigenvalues --   -0.62530  -0.57094  -0.52407  -0.49395  -0.48002
 Alpha  occ. eigenvalues --   -0.47007  -0.45265  -0.44535  -0.43485  -0.40332
 Alpha  occ. eigenvalues --   -0.38799  -0.37401  -0.37085  -0.34054  -0.33080
 Alpha  occ. eigenvalues --   -0.32758  -0.26127  -0.26038  -0.25303  -0.23246
 Alpha virt. eigenvalues --    0.05617   0.06020   0.07387   0.09802   0.10008
 Alpha virt. eigenvalues --    0.11468   0.13138   0.14325   0.15059   0.16070
 Alpha virt. eigenvalues --    0.16376   0.17184   0.17784   0.18802   0.19475

 Mulliken charges:
               1
     1  C   -0.431986
     2  C    0.290902
     3  C   -0.370881
     4  C   -0.183412
     5  C    0.029174
     6  C   -0.393003
     7  C    0.031801
     8  N   -0.512402
     9  N   -0.494725
    10  H    0.192258
    11  H    0.135653
    12  H    0.126524
    13  H    0.093833
    14  H    0.104986
    15  H    0.055119
    16  H    0.110371
    17  H    0.108506
    18  H    0.138792
    19  H    0.084741
    20  H    0.212399
    21  H    0.227411
    22  H    0.214864
    23  H    0.229075
 Sum of Mulliken charges =  -0.00000

 Dipole moment (field-independent basis, Debye):
    X=              0.1526    Y=             -0.4798    Z=              0.8751  Tot=              1.0096
 Quadrupole moment (field-independent basis, Debye-Ang):
   XX=            -59.8386   YY=            -57.8863   ZZ=            -53.9418
   XY=             -0.7743   XZ=             -3.3200   YZ=              0.2011

  Exact polarizability: 113.813  -9.893  81.972  -4.514   1.958  70.144
 Approx polarizability: 146.095 -19.668 118.919  -9.253   5.252 112.216

                      1                      2                      3
                      A                      A                      A
 Frequencies --     53.2554                80.1491                86.5702
 Red. masses --      3.2154                 2.7679                 2.4195
 Frc consts  --      0.0054                 0.0105                 0.0107
 IR Inten    --      0.7332                 0.4428                 0.3459

                      4                      5                      6
                      A                      A                      A
 Frequencies --    105.0923               201.7392               227.0738
 Red. masses --      3.4267                 1.2002                 3.2828
 Frc consts  --      0.0223                 0.0288                 0.0997
 IR Inten    --      0.0023                 0.3085                 1.1260

                      7                      8                      9
                      A                      A                      A
 Frequencies --    260.1692               279.0796               291.8353
 Red. masses --      1.5178                 1.1324                 1.6201
 Frc consts  --      0.0605                 0.0520                 0.0813
 IR Inten    --     10.3415                41.1539                15.0374

                     10                     11                     12
                      A                      A                      A
 Frequencies --    345.0146               352.8165               382.2023
 Red. masses --      2.9237                 3.2297                 2.4154
 Frc consts  --      0.2051                 0.2369                 0.2079
 IR Inten    --      4.6672                 8.4783                 1.0632

                     13                     14                     15
                      A                      A                      A
 Frequencies --    428.0073               478.2764               518.8353
 Red. masses --      3.3847                 2.6073                 3.0319
 Frc consts  --      0.3653                 0.3514                 0.4809
 IR Inten    --      1.7957                12.0161                24.4631

                     16                     17                     18
                      A                      A                      A
 Frequencies --    573.5520               615.7805               635.5506
 Red. masses --      2.8110                 1.1991                 1.2184
 Frc consts  --      0.5448                 0.2679                 0.2900
 IR Inten    --      5.9006                43.5922                43.4329

                     19                     20                     21
                      A                      A                      A
 Frequencies --    767.4316               818.3061               884.5798
 Red. masses --      1.2857                 1.9210                 1.5134
 Frc consts  --      0.4462                 0.7579                 0.6977
 IR Inten    --      2.1309                48.2952               176.7075

                     22                     23                     24
                      A                      A                      A
 Frequencies --    888.7218               913.3773               951.3108
 Red. masses --      2.2104                 1.9579                 1.3598
 Frc consts  --      1.0286                 0.9624                 0.7251
 IR Inten    --     83.5017                44.9472                 2.3664

                     25                     26                     27
                      A                      A                      A
 Frequencies --    958.1030              1020.9246              1031.2004
 Red. masses --      3.5834                 1.6125                 2.7076
 Frc consts  --      1.9381                 0.9902                 1.6964
 IR Inten    --      2.3601                33.2060                 4.9210

                     28                     29                     30
                      A                      A                      A
 Frequencies --   1048.9742              1084.9415              1136.2180
 Red. masses --      1.5973                 2.7276                 1.7118
 Frc consts  --      1.0355                 1.8917                 1.3020
 IR Inten    --      7.9668                13.4665                 3.8311

                     31                     32                     33
                      A                      A                      A
 Frequencies --   1162.9019              1181.9601              1203.0732
 Red. masses --      2.1016                 1.4265                 1.4494
 Frc consts  --      1.6745                 1.1742                 1.2360
 IR Inten    --     16.3197                 9.4954                20.3385

                     34                     35                     36
                      A                      A                      A
 Frequencies --   1249.5910              1296.9014              1316.7687
 Red. masses --      1.3799                 1.4159                 1.1718
 Frc consts  --      1.2695                 1.4032                 1.1971
 IR Inten    --      0.7579                 2.3226                 1.4010

                     37                     38                     39
                      A                      A                      A
 Frequencies --   1352.8031              1356.7269              1384.6019
 Red. masses --      1.4048                 1.2917                 1.4550
 Frc consts  --      1.5147                 1.4009                 1.6435
 IR Inten    --      0.5460                 0.6838                 5.4941

                     40                     41                     42
                      A                      A                      A
 Frequencies --   1393.3623              1411.6725              1416.0311
 Red. masses --      1.3803                 1.2534                 1.2477
 Frc consts  --      1.5789                 1.4716                 1.4740
 IR Inten    --      6.1933                14.6115                 6.4107

                     43                     44                     45
                      A                      A                      A
 Frequencies --   1473.0626              1495.0761              1495.4361
 Red. masses --      1.0774                 1.0514                 1.0880
 Frc consts  --      1.3775                 1.3846                 1.4335
 IR Inten    --      1.4776                 4.3021                 0.6277

                     46                     47                     48
                      A                      A                      A
 Frequencies --   1509.9094              1647.0227              1662.2920
 Red. masses --      1.0527                 1.0992                 1.0911
 Frc consts  --      1.4141                 1.7568                 1.7763
 IR Inten    --      6.3458                20.4226                24.7157

                     49                     50                     51
                      A                      A                      A
 Frequencies --   2238.1463              2955.3134              3008.6878
 Red. masses --      5.9372                 1.0804                 1.0831
 Frc consts  --     17.5230                 5.5597                 5.7768
 IR Inten    --      4.9866                22.2637                27.3471

                     52                     53                     54
                      A                      A                      A
 Frequencies --   3014.4012              3028.1506              3032.4628
 Red. masses --      1.0647                 1.0605                 1.0463
 Frc consts  --      5.7000                 5.7293                 5.6691
 IR Inten    --      2.3956                34.3264                33.5932

                     55                     56                     57
                      A                      A                      A
 Frequencies --   3056.3213              3085.4413              3096.0682
 Red. masses --      1.0931                 1.0992                 1.0968
 Frc consts  --      6.0159                 6.1654                 6.1941
 IR Inten    --      2.7607                37.8611                35.2596

                     58                     59                     60
                      A                      A                      A
 Frequencies --   3141.6287              3464.4642              3471.3008
 Red. masses --      1.0977                 1.0499                 1.0505
 Frc consts  --      6.3833                 7.4244                 7.4579
 IR Inten    --     12.8904                 2.1808                 0.6795

                     61                     62                     63
                      A                      A                      A
 Frequencies --   3507.9070              3552.8133              3557.5701
 Red. masses --      1.1619                 1.0898                 1.0908
 Frc consts  --      8.4236                 8.1049                 8.1342
 IR Inten    --     69.2285                 0.6971                 0.6896

 - Thermochemistry -
 -------------------
 Temperature   298.150 Kelvin.  Pressure   1.00000 Atm.
 Atom     1 has atomic number  6 and mass  12.00000

 Molecular mass:   126.11570 amu.
 Principal axes and moments of inertia in atomic units:
                           1         2         3
     Eigenvalues --   555.988792507.305742935.67493
           X            0.99999  -0.00221  -0.00277
           Y            0.00220   0.99999  -0.00258
           Z            0.00278   0.00258   0.99999
 This molecule is an asymmetric top.
 Rotational symmetry number  1.
 Warning -- assumption of classical behavior for rotation
           may cause significant error
 Rotational temperatures (Kelvin)      0.15578     0.03454     0.02950
 Rotational constants (GHZ):           3.24600     0.71979     0.61476
 Zero-point vibrational energy     536160.0 (Joules/Mol)
                                  128.14532 (Kcal/Mol)
 Warning -- explicit consideration of  17 degrees of freedom as
           vibrations may cause significant error
 Vibrational temperatures:     76.62   115.32   124.56   151.20   290.26
          (Kelvin)            326.71   374.33   401.53   419.89   496.40
                              507.62   549.90   615.81   688.13   746.49
                              825.21   885.97   914.42  1104.16  1177.36
                             1272.71  1278.67  1314.15  1368.72  1378.50
                             1468.88  1483.67  1509.24  1560.99  1634.76
                             1673.16  1700.58  1730.95  1797.88  1865.95
                             1894.54  1946.38  1952.03  1992.13  2004.74
                             2031.08  2037.35  2119.41  2151.08  2151.60
                             2172.42  2369.70  2391.67  3220.19  4252.04
                             4328.83  4337.05  4356.83  4363.04  4397.36
                             4439.26  4454.55  4520.10  4984.59  4994.43
                             5047.10  5111.71  5118.55

 Zero-point correction=                           0.204213 (Hartree/Particle)
 Thermal correction to Energy=                    0.215536
 Thermal correction to Enthalpy=                  0.216480
 Thermal correction to Gibbs Free Energy=         0.167409
 Sum of electronic and zero-point Energies=           -384.430165
 Sum of electronic and thermal Energies=              -384.418842
 Sum of electronic and thermal Enthalpies=            -384.417898
 Sum of electronic and thermal Free Energies=         -384.466969

                     E (Thermal)             CV                S
                      KCal/Mol        Cal/Mol-Kelvin    Cal/Mol-Kelvin
 Total                  135.251             41.668            103.280
 Electronic               0.000              0.000              0.000
 Translational            0.889              2.981             40.410
 Rotational               0.889              2.981             29.794
 Vibrational            133.473             35.707             33.076
 Vibration     1          0.596              1.976              4.693
 Vibration     2          0.600              1.963              3.887
 Vibration     3          0.601              1.959              3.736
 Vibration     4          0.605              1.945              3.358
 Vibration     5          0.639              1.837              2.117
 Vibration     6          0.651              1.800              1.902
 Vibration     7          0.668              1.746              1.661
 Vibration     8          0.679              1.712              1.539
 Vibration     9          0.687              1.689              1.463
 Vibration    10          0.723              1.585              1.189
 Vibration    11          0.729              1.569              1.154
 Vibration    12          0.752              1.508              1.030
 Vibration    13          0.790              1.409              0.865
 Vibration    14          0.835              1.298              0.715
 Vibration    15          0.874              1.208              0.613
 Vibration    16          0.930              1.088              0.497
 Vibration    17          0.975              0.999              0.423

                           ! Non-Optimized Parameters !
 Normal termination of Gaussian 16 at Mon May 31 15:42:13 2021.
