 Gaussian 16, Revision A.03,
 Gaussian 16:  ES64L-G16RevA.03 25-Dec-2016

 -----------------------------
 # opt freq b3lyp/6-31g(2df,p)
 -----------------------------

 -------------------
 Title Card Required
 -------------------
 Symbolic Z-matrix:
 Charge =  0 Multiplicity = 1

 SCF Done:  E(RB3LYP) =  -442.591982695     A.U. after   14 cycles
 SCF Done:  E(RB3LYP) =  -442.612120410     A.U. after   12 cycles
 SCF Done:  E(RB3LYP) =  -442.611030630     A.U. after   14 cycles
 SCF Done:  E(RB3LYP) =  -442.611101140     A.U. after   12 cycles
 SCF Done:  E(RB3LYP) =  -442.613846953     A.U. after    8 cycles
 SCF Done:  E(RB3LYP) =  -442.614421099     A.U. after   11 cycles
 SCF Done:  E(RB3LYP) =  -442.614131019     A.U. after   11 cycles
 SCF Done:  E(RB3LYP) =  -442.614586519     A.U. after   11 cycles
 SCF Done:  E(RB3LYP) =  -442.614645382     A.U. after   10 cycles
 SCF Done:  E(RB3LYP) =  -442.614655811     A.U. after    9 cycles
 SCF Done:  E(RB3LYP) =  -442.614656359     A.U. after    7 cycles
 SCF Done:  E(RB3LYP) =  -442.614656552     A.U. after    7 cycles
 SCF Done:  E(RB3LYP) =  -442.614656661     A.U. after    7 cycles
 Optimization completed.
    -- Stationary point found.
 Normal termination of Gaussian 16 at Tue Jun  1 18:15:43 2021.

 ----------------------------------------------------------------------
 #N Geom=AllCheck Guess=TCheck SCRF=Check GenChk RB3LYP/6-31G(2df,p) Fr
 eq
 ----------------------------------------------------------------------

 Structure from the checkpoint file:  "CtCC1NCCCC1pCpO.chk"
 -------------------
 Title Card Required
 -------------------
 Charge =  0 Multiplicity = 1

                         Standard orientation:
 ---------------------------------------------------------------------
 Center     Atomic      Atomic             Coordinates (Angstroms)
 Number     Number       Type             X           Y           Z
 ---------------------------------------------------------------------
      1          6           0        2.942539    0.130021    0.474424
      2          6           0        1.880294    0.162761   -0.090274
      3          6           0        0.597155    0.163858   -0.803819
      4          7           0        0.101040   -1.182015   -1.150725
      5          6           0       -0.130404   -2.029936    0.028680
      6          6           0       -1.224620   -1.401279    0.896427
      7          6           0       -0.889695    0.059220    1.235246
      8          6           0       -0.559402    0.875220   -0.032657
      9          6           0       -0.218546    2.322327    0.298731
     10          8           0       -1.677765    0.904938   -0.913318
     11          1           0        3.880611    0.113731    0.972376
     12          1           0        0.724726    0.711746   -1.745046
     13          1           0        0.751129   -1.631284   -1.785980
     14          1           0        0.787432   -2.162595    0.624943
     15          1           0       -0.439908   -3.018486   -0.324970
     16          1           0       -1.350896   -1.986074    1.813440
     17          1           0       -2.177908   -1.438873    0.357341
     18          1           0       -0.029498    0.095685    1.914482
     19          1           0       -1.732614    0.535374    1.746433
     20          1           0        0.634226    2.382995    0.979098
     21          1           0       -1.080681    2.802401    0.770725
     22          1           0        0.017908    2.876539   -0.614598
     23          1           0       -1.653623    0.060293   -1.387185
 ---------------------------------------------------------------------

 SCF Done:  E(RB3LYP) =  -442.614656661     A.U. after    1 cycles

 The electronic state is 1-A.
 Alpha  occ. eigenvalues --  -19.11936 -14.33043 -10.23438 -10.23315 -10.20748
 Alpha  occ. eigenvalues --  -10.18463 -10.17913 -10.17858 -10.17300 -10.16589
 Alpha  occ. eigenvalues --   -1.01084  -0.91707  -0.78655  -0.77815  -0.73570
 Alpha  occ. eigenvalues --   -0.68969  -0.64994  -0.59909  -0.56183  -0.53180
 Alpha  occ. eigenvalues --   -0.51651  -0.48366  -0.47404  -0.45722  -0.43889
 Alpha  occ. eigenvalues --   -0.41281  -0.40374  -0.38548  -0.37611  -0.37198
 Alpha  occ. eigenvalues --   -0.34521  -0.33428  -0.32736  -0.31544  -0.28101
 Alpha  occ. eigenvalues --   -0.27244  -0.25125  -0.24075
 Alpha virt. eigenvalues --    0.04018   0.04695   0.08264   0.11638   0.12216
 Alpha virt. eigenvalues --    0.12517   0.12739   0.13251   0.15289   0.15721
 Alpha virt. eigenvalues --    0.17125   0.17705   0.18137   0.19385   0.20325

 Mulliken charges:
               1
     1  C   -0.473381
     2  C    0.353374
     3  C   -0.229204
     4  N   -0.317402
     5  C   -0.160786
     6  C   -0.203774
     7  C   -0.220550
     8  C    0.393459
     9  C   -0.430591
    10  O   -0.483447
    11  H    0.197497
    12  H    0.107859
    13  H    0.228336
    14  H    0.098362
    15  H    0.099082
    16  H    0.094504
    17  H    0.105225
    18  H    0.102662
    19  H    0.098391
    20  H    0.123116
    21  H    0.121701
    22  H    0.115936
    23  H    0.279631
 Sum of Mulliken charges =  -0.00000

 Dipole moment (field-independent basis, Debye):
    X=              1.5199    Y=             -1.5677    Z=              0.3294  Tot=              2.2083
 Quadrupole moment (field-independent basis, Debye-Ang):
   XX=            -60.3647   YY=            -59.8172   ZZ=            -58.7451
   XY=              1.7030   XZ=             -0.8057   YZ=              2.0678

  Exact polarizability: 101.763   1.393  90.042   5.624   0.537  79.948
 Approx polarizability: 155.050  -0.429 120.741  20.043   0.533 126.120

                      1                      2                      3
                      A                      A                      A
 Frequencies --    108.5641               140.8185               175.7066
 Red. masses --      3.6263                 3.6477                 3.1153
 Frc consts  --      0.0252                 0.0426                 0.0567
 IR Inten    --      0.8596                 0.0912                 0.7871

                      4                      5                      6
                      A                      A                      A
 Frequencies --    214.7164               248.3426               280.5627
 Red. masses --      1.0310                 2.8815                 2.7872
 Frc consts  --      0.0280                 0.1047                 0.1293
 IR Inten    --      0.1009                 0.7116                 1.4687

                      7                      8                      9
                      A                      A                      A
 Frequencies --    323.2796               354.3637               381.8934
 Red. masses --      3.3476                 2.5831                 3.1252
 Frc consts  --      0.2061                 0.1911                 0.2685
 IR Inten    --      4.6062                 1.1246                 8.1944

                     10                     11                     12
                      A                      A                      A
 Frequencies --    404.8802               453.4756               487.3213
 Red. masses --      2.7609                 3.5240                 3.0573
 Frc consts  --      0.2667                 0.4270                 0.4278
 IR Inten    --      2.9142                 3.6578                 7.7535

                     13                     14                     15
                      A                      A                      A
 Frequencies --    546.5557               564.0621               565.9692
 Red. masses --      3.6067                 1.4624                 1.6240
 Frc consts  --      0.6348                 0.2741                 0.3065
 IR Inten    --      3.2286                40.7040                37.1605

                     16                     17                     18
                      A                      A                      A
 Frequencies --    631.7317               640.3097               652.5506
 Red. masses --      1.2681                 3.6872                 1.2420
 Frc consts  --      0.2982                 0.8907                 0.3116
 IR Inten    --     36.2942                17.9927                36.5215

                     19                     20                     21
                      A                      A                      A
 Frequencies --    740.0377               781.7099               859.4587
 Red. masses --      2.6776                 1.6253                 2.7685
 Frc consts  --      0.8640                 0.5852                 1.2049
 IR Inten    --      3.9036                72.2717                 0.1237

                     22                     23                     24
                      A                      A                      A
 Frequencies --    877.6323               915.9489               933.1750
 Red. masses --      2.2058                 1.4679                 2.1638
 Frc consts  --      1.0010                 0.7256                 1.1102
 IR Inten    --      1.0163                 3.6309                 5.9525

                     25                     26                     27
                      A                      A                      A
 Frequencies --    971.4573               995.9331              1005.2588
 Red. masses --      2.4019                 2.9840                 1.9902
 Frc consts  --      1.3356                 1.7438                 1.1850
 IR Inten    --     11.3616                17.9579                37.0247

                     28                     29                     30
                      A                      A                      A
 Frequencies --   1052.0159              1073.4579              1118.0275
 Red. masses --      1.6387                 1.5006                 2.3900
 Frc consts  --      1.0685                 1.0188                 1.7601
 IR Inten    --      2.1283                 0.7009                22.0518

                     31                     32                     33
                      A                      A                      A
 Frequencies --   1130.8735              1159.5739              1179.4958
 Red. masses --      5.1441                 1.5783                 2.0293
 Frc consts  --      3.8761                 1.2503                 1.6634
 IR Inten    --     39.0724                 9.6287                11.4644

                     34                     35                     36
                      A                      A                      A
 Frequencies --   1235.4827              1253.8012              1298.5402
 Red. masses --      1.5061                 1.6781                 1.2199
 Frc consts  --      1.3545                 1.5543                 1.2119
 IR Inten    --     39.0174                13.9125                 0.8259

                     37                     38                     39
                      A                      A                      A
 Frequencies --   1300.4435              1341.5493              1359.6597
 Red. masses --      1.3980                 1.2519                 1.4013
 Frc consts  --      1.3930                 1.3275                 1.5263
 IR Inten    --      0.5037                 8.2679                32.3466

                     40                     41                     42
                      A                      A                      A
 Frequencies --   1374.5884              1398.5418              1400.4850
 Red. masses --      1.3911                 1.3869                 1.2977
 Frc consts  --      1.5487                 1.5983                 1.4997
 IR Inten    --      1.6235                26.3329                12.8087

                     43                     44                     45
                      A                      A                      A
 Frequencies --   1430.0623              1471.7919              1474.6198
 Red. masses --      1.5883                 1.1769                 1.1650
 Frc consts  --      1.9137                 1.5020                 1.4926
 IR Inten    --     79.9942                 7.0478                 2.6860

                     46                     47                     48
                      A                      A                      A
 Frequencies --   1486.7213              1490.1873              1496.4492
 Red. masses --      1.0655                 1.0990                 1.0680
 Frc consts  --      1.3876                 1.4379                 1.4091
 IR Inten    --      6.1670                 4.3009                 0.6284

                     49                     50                     51
                      A                      A                      A
 Frequencies --   1505.8233              2218.8138              2970.4969
 Red. masses --      1.0969                 5.9308                 1.0704
 Frc consts  --      1.4655                17.2031                 5.5647
 IR Inten    --      1.9797                 0.1426                41.0581

                     52                     53                     54
                      A                      A                      A
 Frequencies --   3034.1851              3035.6582              3039.5092
 Red. masses --      1.0602                 1.0803                 1.0617
 Frc consts  --      5.7507                 5.8656                 5.7791
 IR Inten    --     17.1442                10.3304                19.4001

                     55                     56                     57
                      A                      A                      A
 Frequencies --   3044.5228              3071.1183              3077.9752
 Red. masses --      1.0383                 1.0903                 1.1004
 Frc consts  --      5.6702                 6.0586                 6.1421
 IR Inten    --     24.0528                42.2863                22.4714

                     58                     59                     60
                      A                      A                      A
 Frequencies --   3087.9510              3113.4098              3129.7503
 Red. masses --      1.1048                 1.1015                 1.1014
 Frc consts  --      6.2071                 6.2909                 6.3565
 IR Inten    --     36.7585                21.4545                18.8398

                     61                     62                     63
                      A                      A                      A
 Frequencies --   3500.4734              3533.8622              3709.5318
 Red. masses --      1.1609                 1.0749                 1.0649
 Frc consts  --      8.3809                 7.9090                 8.6334
 IR Inten    --     66.4499                 1.0634                54.4822

 - Thermochemistry -
 -------------------
 Temperature   298.150 Kelvin.  Pressure   1.00000 Atm.
 Atom     1 has atomic number  6 and mass  12.00000

 Molecular mass:   139.09971 amu.
 Principal axes and moments of inertia in atomic units:
                           1         2         3
     Eigenvalues --  1138.794581258.110461731.30061
           X            0.99666   0.08033  -0.01466
           Y           -0.08023   0.99675   0.00742
           Z            0.01521  -0.00622   0.99986
 This molecule is an asymmetric top.
 Rotational symmetry number  1.
 Warning -- assumption of classical behavior for rotation
           may cause significant error
 Rotational temperatures (Kelvin)      0.07606     0.06884     0.05003
 Rotational constants (GHZ):           1.58478     1.43449     1.04242
 Zero-point vibrational energy     525490.6 (Joules/Mol)
                                  125.59526 (Kcal/Mol)
 Warning -- explicit consideration of  15 degrees of freedom as
           vibrations may cause significant error
 Vibrational temperatures:    156.20   202.61   252.80   308.93   357.31
          (Kelvin)            403.67   465.13   509.85   549.46   582.53
                              652.45   701.15   786.37   811.56   814.30
                              908.92   921.26   938.87  1064.75  1124.71
                             1236.57  1262.72  1317.85  1342.63  1397.71
                             1432.93  1446.34  1513.62  1544.47  1608.59
                             1627.07  1668.37  1697.03  1777.58  1803.94
                             1868.31  1871.05  1930.19  1956.25  1977.73
                             2012.19  2014.99  2057.54  2117.58  2121.65
                             2139.06  2144.05  2153.06  2166.54  3192.38
                             4273.88  4365.52  4367.64  4373.18  4380.39
                             4418.65  4428.52  4442.87  4479.50  4503.01
                             5036.40  5084.44  5337.19

 Zero-point correction=                           0.200149 (Hartree/Particle)
 Thermal correction to Energy=                    0.210061
 Thermal correction to Enthalpy=                  0.211005
 Thermal correction to Gibbs Free Energy=         0.166166
 Sum of electronic and zero-point Energies=           -442.414508
 Sum of electronic and thermal Energies=              -442.404596
 Sum of electronic and thermal Enthalpies=            -442.403652
 Sum of electronic and thermal Free Energies=         -442.448490

                     E (Thermal)             CV                S
                      KCal/Mol        Cal/Mol-Kelvin    Cal/Mol-Kelvin
 Total                  131.815             39.996             94.370
 Electronic               0.000              0.000              0.000
 Translational            0.889              2.981             40.702
 Rotational               0.889              2.981             29.296
 Vibrational            130.038             34.034             24.372
 Vibration     1          0.606              1.942              3.294
 Vibration     2          0.615              1.912              2.793
 Vibration     3          0.628              1.872              2.374
 Vibration     4          0.645              1.819              2.003
 Vibration     5          0.662              1.766              1.742
 Vibration     6          0.680              1.710              1.530
 Vibration     7          0.708              1.629              1.293
 Vibration     8          0.730              1.566              1.147
 Vibration     9          0.751              1.509              1.032
 Vibration    10          0.770              1.460              0.945
 Vibration    11          0.812              1.353              0.785
 Vibration    12          0.843              1.278              0.691
 Vibration    13          0.902              1.147              0.551
 Vibration    14          0.920              1.109              0.516
 Vibration    15          0.922              1.105              0.512

 Optimization completed.
    -- Stationary point found.
 Normal termination of Gaussian 16 at Tue Jun  1 19:05:24 2021.
