 Gaussian 16, Revision A.03,
 Gaussian 16:  ES64L-G16RevA.03 25-Dec-2016

 -----------------------------
 # opt freq b3lyp/6-31g(2df,p)
 -----------------------------

 -------------------
 Title Card Required
 -------------------
 Symbolic Z-matrix:
 Charge =  0 Multiplicity = 1

 SCF Done:  E(RB3LYP) =  -436.286885699     A.U. after   15 cycles
 SCF Done:  E(RB3LYP) =  -436.308584304     A.U. after   12 cycles
 SCF Done:  E(RB3LYP) =  -436.309714170     A.U. after   13 cycles
 SCF Done:  E(RB3LYP) =  -436.299893889     A.U. after   15 cycles
 SCF Done:  E(RB3LYP) =  -436.309428791     A.U. after   12 cycles
 SCF Done:  E(RB3LYP) =  -436.309942648     A.U. after    9 cycles
 SCF Done:  E(RB3LYP) =  -436.309864774     A.U. after   13 cycles
 SCF Done:  E(RB3LYP) =  -436.310187999     A.U. after   11 cycles
 SCF Done:  E(RB3LYP) =  -436.310134463     A.U. after   12 cycles
 SCF Done:  E(RB3LYP) =  -436.310330061     A.U. after   11 cycles
 SCF Done:  E(RB3LYP) =  -436.311068473     A.U. after   13 cycles
 SCF Done:  E(RB3LYP) =  -436.312238164     A.U. after   14 cycles
 SCF Done:  E(RB3LYP) =  -436.312236161     A.U. after   12 cycles
 SCF Done:  E(RB3LYP) =  -436.312613408     A.U. after   12 cycles
 SCF Done:  E(RB3LYP) =  -436.312811738     A.U. after   11 cycles
 SCF Done:  E(RB3LYP) =  -436.312829278     A.U. after   11 cycles
 SCF Done:  E(RB3LYP) =  -436.312839921     A.U. after    9 cycles
 SCF Done:  E(RB3LYP) =  -436.312840379     A.U. after    8 cycles
 SCF Done:  E(RB3LYP) =  -436.312840452     A.U. after    7 cycles
 Optimization completed.
    -- Stationary point found.
 Normal termination of Gaussian 16 at Mon May 31 23:43:27 2021.

 ----------------------------------------------------------------------
 #N Geom=AllCheck Guess=TCheck SCRF=Check GenChk RB3LYP/6-31G(2df,p) Fr
 eq
 ----------------------------------------------------------------------

 Structure from the checkpoint file:  "CtCCNCCNdCCtN.chk"
 -------------------
 Title Card Required
 -------------------
 Charge =  0 Multiplicity = 1

                         Standard orientation:
 ---------------------------------------------------------------------
 Center     Atomic      Atomic             Coordinates (Angstroms)
 Number     Number       Type             X           Y           Z
 ---------------------------------------------------------------------
      1          6           0       -5.170708    0.402169    0.276465
      2          6           0       -4.105133   -0.135677    0.141586
      3          6           0       -2.803466   -0.779875    0.008370
      4          7           0       -1.732169    0.205525   -0.162496
      5          6           0       -0.407549   -0.397991   -0.143775
      6          6           0        0.657749    0.671312   -0.411169
      7          7           0        1.965780    0.055225   -0.502293
      8          6           0        2.879458    0.485597    0.263161
      9          6           0        4.202064   -0.082663    0.227413
     10          7           0        5.279750   -0.502652    0.240524
     11          1           0       -6.116931    0.871902    0.384662
     12          1           0       -2.805617   -1.435828   -0.872607
     13          1           0       -2.642040   -1.442196    0.880277
     14          1           0       -1.811123    0.899288    0.575006
     15          1           0       -0.352907   -1.149679   -0.939376
     16          1           0       -0.172630   -0.921769    0.801633
     17          1           0        0.614935    1.459740    0.360023
     18          1           0        0.436122    1.134819   -1.379329
     19          1           0        2.742180    1.299802    0.987265
 ---------------------------------------------------------------------

 SCF Done:  E(RB3LYP) =  -436.312840452     A.U. after    1 cycles

 The electronic state is 1-A.
 Alpha  occ. eigenvalues --  -14.36879 -14.34915 -14.33380 -10.28049 -10.24209
 Alpha  occ. eigenvalues --  -10.23518 -10.23421 -10.22626 -10.18964 -10.18139
 Alpha  occ. eigenvalues --   -0.96620  -0.92540  -0.91352  -0.79245  -0.75707
 Alpha  occ. eigenvalues --   -0.70423  -0.66532  -0.62256  -0.54445  -0.54036
 Alpha  occ. eigenvalues --   -0.51580  -0.51018  -0.47351  -0.46109  -0.44524
 Alpha  occ. eigenvalues --   -0.41657  -0.40693  -0.38052  -0.37968  -0.36784
 Alpha  occ. eigenvalues --   -0.34845  -0.31352  -0.29247  -0.27959  -0.27522
 Alpha  occ. eigenvalues --   -0.24276
 Alpha virt. eigenvalues --   -0.07419   0.01706   0.03476   0.05031   0.08139
 Alpha virt. eigenvalues --    0.09760   0.10124   0.10929   0.11713   0.12379
 Alpha virt. eigenvalues --    0.14294   0.14902   0.17050   0.17942   0.18383

 Mulliken charges:
               1
     1  C   -0.415258
     2  C    0.270652
     3  C   -0.278040
     4  N   -0.301701
     5  C   -0.116467
     6  C   -0.173643
     7  N   -0.125582
     8  C   -0.094819
     9  C    0.273854
    10  N   -0.299353
    11  H    0.200371
    12  H    0.140266
    13  H    0.113954
    14  H    0.223092
    15  H    0.127914
    16  H    0.088743
    17  H    0.089756
    18  H    0.143556
    19  H    0.132704
 Sum of Mulliken charges =  -0.00000

 Dipole moment (field-independent basis, Debye):
    X=             -3.3397    Y=              1.6947    Z=              1.4933  Tot=              4.0318
 Quadrupole moment (field-independent basis, Debye-Ang):
   XX=            -81.0783   YY=            -56.4828   ZZ=            -58.4641
   XY=              6.4544   XZ=             -0.1602   YZ=              1.8389

  Exact polarizability: 153.511 -13.604  69.903   4.759   3.685  62.226
 Approx polarizability: 202.112 -28.244 110.083  11.209   8.059  99.926

                      1                      2                      3
                      A                      A                      A
 Frequencies --     32.4554                50.1828                89.3761
 Red. masses --      5.2202                 4.9467                 2.8127
 Frc consts  --      0.0032                 0.0073                 0.0132
 IR Inten    --      1.2288                 1.2389                 5.6867

                      4                      5                      6
                      A                      A                      A
 Frequencies --    107.2551               123.0087               141.6608
 Red. masses --      3.4297                 4.0390                 2.8591
 Frc consts  --      0.0232                 0.0360                 0.0338
 IR Inten    --      3.1936                 2.5579                12.6149

                      7                      8                      9
                      A                      A                      A
 Frequencies --    198.5928               239.8171               304.2302
 Red. masses --      4.7107                 4.9058                 5.1700
 Frc consts  --      0.1095                 0.1662                 0.2819
 IR Inten    --      1.2767                 2.9702                 0.1907

                     10                     11                     12
                      A                      A                      A
 Frequencies --    341.6796               380.5482               453.9888
 Red. masses --      3.3904                 4.8920                 3.4855
 Frc consts  --      0.2332                 0.4174                 0.4233
 IR Inten    --      2.5090                 4.3720                 6.4118

                     13                     14                     15
                      A                      A                      A
 Frequencies --    515.6580               546.7090               615.0625
 Red. masses --      5.5496                 6.6482                 1.1978
 Frc consts  --      0.8694                 1.1708                 0.2670
 IR Inten    --      2.5664                 3.1278                43.5298

                     16                     17                     18
                      A                      A                      A
 Frequencies --    632.7213               667.0128               783.4298
 Red. masses --      6.6755                 1.2345                 1.2383
 Frc consts  --      1.5746                 0.3236                 0.4478
 IR Inten    --      2.7624                35.3096                79.8540

                     19                     20                     21
                      A                      A                      A
 Frequencies --    818.0812               950.8468               966.0155
 Red. masses --      1.1632                 2.7356                 1.9051
 Frc consts  --      0.4587                 1.4572                 1.0475
 IR Inten    --      5.0541                 2.4714                 5.1831

                     22                     23                     24
                      A                      A                      A
 Frequencies --    992.5873              1003.8525              1035.0470
 Red. masses --      2.0944                 2.8816                 3.2676
 Frc consts  --      1.2157                 1.7109                 2.0625
 IR Inten    --     16.8325                 7.7124                16.0358

                     25                     26                     27
                      A                      A                      A
 Frequencies --   1058.9704              1091.5003              1145.1925
 Red. masses --      3.4521                 2.7633                 4.1617
 Frc consts  --      2.2809                 1.9396                 3.2157
 IR Inten    --      4.8779                 5.8082                59.5972

                     28                     29                     30
                      A                      A                      A
 Frequencies --   1164.1561              1212.7267              1266.4495
 Red. masses --      1.7940                 1.1601                 1.2330
 Frc consts  --      1.4325                 1.0053                 1.1652
 IR Inten    --      2.7160                 8.0454                 2.5448

                     31                     32                     33
                      A                      A                      A
 Frequencies --   1299.8918              1322.9420              1362.5465
 Red. masses --      1.1784                 1.1513                 1.2738
 Frc consts  --      1.1731                 1.1871                 1.3934
 IR Inten    --      7.3574                50.0556                 7.3555

                     34                     35                     36
                      A                      A                      A
 Frequencies --   1389.3684              1419.9826              1487.1339
 Red. masses --      1.3651                 1.4787                 1.1026
 Frc consts  --      1.5525                 1.7567                 1.4367
 IR Inten    --     19.0710                 1.9520                11.0986

                     37                     38                     39
                      A                      A                      A
 Frequencies --   1491.8710              1497.7514              1519.9177
 Red. masses --      1.1823                 1.1018                 1.0844
 Frc consts  --      1.5504                 1.4563                 1.4760
 IR Inten    --     47.0932                 0.8169                 3.5854

                     40                     41                     42
                      A                      A                      A
 Frequencies --   1711.0784              2245.0347              2350.7208
 Red. masses --      9.2658                 5.9065                12.6449
 Frc consts  --     15.9835                17.5398                41.1688
 IR Inten    --     24.5415                 0.0816                 0.3207

                     43                     44                     45
                      A                      A                      A
 Frequencies --   2918.6064              2929.8837              2955.9484
 Red. masses --      1.0733                 1.0726                 1.0681
 Frc consts  --      5.3866                 5.4249                 5.4986
 IR Inten    --     43.0336                73.8383                42.9743

                     46                     47                     48
                      A                      A                      A
 Frequencies --   3025.8344              3028.8067              3058.3882
 Red. masses --      1.0837                 1.0849                 1.0849
 Frc consts  --      5.8461                 5.8640                 5.9792
 IR Inten    --     16.0662                21.5888                 7.5844

                     49                     50                     51
                      A                      A                      A
 Frequencies --   3071.3532              3506.1217              3511.6607
 Red. masses --      1.0937                 1.1634                 1.0738
 Frc consts  --      6.0789                 8.4259                 7.8018
 IR Inten    --     23.2347                68.6188                 0.6616

 - Thermochemistry -
 -------------------
 Temperature   298.150 Kelvin.  Pressure   1.00000 Atm.
 Atom     1 has atomic number  6 and mass  12.00000

 Molecular mass:   135.07965 amu.
 Principal axes and moments of inertia in atomic units:
                           1         2         3
     Eigenvalues --   189.645105364.035445438.71229
           X            0.99999   0.00438  -0.00026
           Y           -0.00435   0.99770   0.06761
           Z            0.00055  -0.06761   0.99771
 This molecule is an asymmetric top.
 Rotational symmetry number  1.
 Rotational temperatures (Kelvin)      0.45672     0.01615     0.01593
 Rotational constants (GHZ):           9.51641     0.33645     0.33183
 Zero-point vibrational energy     394969.0 (Joules/Mol)
                                   94.39985 (Kcal/Mol)
 Warning -- explicit consideration of  15 degrees of freedom as
           vibrations may cause significant error
 Vibrational temperatures:     46.70    72.20   128.59   154.32   176.98
          (Kelvin)            203.82   285.73   345.04   437.72   491.60
                              547.52   653.19   741.92   786.59   884.94
                              910.34   959.68  1127.18  1177.04  1368.06
                             1389.88  1428.11  1444.32  1489.20  1523.62
                             1570.43  1647.68  1674.96  1744.84  1822.14
                             1870.25  1903.42  1960.40  1998.99  2043.04
                             2139.65  2146.47  2154.93  2186.82  2461.86
                             3230.10  3382.16  4199.22  4215.45  4252.95
                             4353.50  4357.78  4400.34  4418.99  5044.53
                             5052.50

 Zero-point correction=                           0.150436 (Hartree/Particle)
 Thermal correction to Energy=                    0.161605
 Thermal correction to Enthalpy=                  0.162549
 Thermal correction to Gibbs Free Energy=         0.112137
 Sum of electronic and zero-point Energies=           -436.162405
 Sum of electronic and thermal Energies=              -436.151235
 Sum of electronic and thermal Enthalpies=            -436.150291
 Sum of electronic and thermal Free Energies=         -436.200703

                     E (Thermal)             CV                S
                      KCal/Mol        Cal/Mol-Kelvin    Cal/Mol-Kelvin
 Total                  101.409             38.273            106.101
 Electronic               0.000              0.000              0.000
 Translational            0.889              2.981             40.614
 Rotational               0.889              2.981             30.093
 Vibrational             99.631             32.312             35.393
 Vibration     1          0.594              1.983              5.673
 Vibration     2          0.595              1.978              4.810
 Vibration     3          0.602              1.957              3.674
 Vibration     4          0.606              1.943              3.318
 Vibration     5          0.610              1.930              3.053
 Vibration     6          0.615              1.912              2.781
 Vibration     7          0.637              1.842              2.146
 Vibration     8          0.657              1.780              1.804
 Vibration     9          0.695              1.666              1.394
 Vibration    10          0.721              1.592              1.204
 Vibration    11          0.750              1.512              1.037
 Vibration    12          0.812              1.352              0.784
 Vibration    13          0.871              1.215              0.620
 Vibration    14          0.902              1.147              0.551
 Vibration    15          0.975              1.000              0.424

 Optimization completed.
    -- Stationary point found.
 Normal termination of Gaussian 16 at Tue Jun  1 00:09:36 2021.
