 Gaussian 16, Revision A.03,
 Gaussian 16:  ES64L-G16RevA.03 25-Dec-2016

 -----------------------------
 # opt freq b3lyp/6-31g(2df,p)
 -----------------------------

 -------------------
 Title Card Required
 -------------------
 Symbolic Z-matrix:
 Charge =  0 Multiplicity = 1

 SCF Done:  E(RB3LYP) =  -378.429512140     A.U. after   15 cycles
 SCF Done:  E(RB3LYP) =  -378.481191741     A.U. after   13 cycles
 SCF Done:  E(RB3LYP) =  -378.487561624     A.U. after   15 cycles
 SCF Done:  E(RB3LYP) =  -378.472707539     A.U. after   15 cycles
 SCF Done:  E(RB3LYP) =  -378.486235537     A.U. after   14 cycles
 SCF Done:  E(RB3LYP) =  -378.488067243     A.U. after   11 cycles
 SCF Done:  E(RB3LYP) =  -378.488100995     A.U. after   16 cycles
 SCF Done:  E(RB3LYP) =  -378.488576268     A.U. after   15 cycles
 SCF Done:  E(RB3LYP) =  -378.488604387     A.U. after   15 cycles
 SCF Done:  E(RB3LYP) =  -378.488662514     A.U. after   15 cycles
 SCF Done:  E(RB3LYP) =  -378.490027406     A.U. after   13 cycles
 SCF Done:  E(RB3LYP) =  -378.486957595     A.U. after   16 cycles
 SCF Done:  E(RB3LYP) =  -378.491297533     A.U. after   14 cycles
 SCF Done:  E(RB3LYP) =  -378.491426855     A.U. after   13 cycles
 SCF Done:  E(RB3LYP) =  -378.491318594     A.U. after   14 cycles
 SCF Done:  E(RB3LYP) =  -378.491626462     A.U. after   12 cycles
 SCF Done:  E(RB3LYP) =  -378.491665689     A.U. after   12 cycles
 SCF Done:  E(RB3LYP) =  -378.491667756     A.U. after    9 cycles
 SCF Done:  E(RB3LYP) =  -378.491668050     A.U. after    8 cycles
 Optimization completed.
    -- Stationary point found.
 Normal termination of Gaussian 16 at Tue Jun  1 18:14:17 2021.

 ----------------------------------------------------------------------
 #N Geom=AllCheck Guess=TCheck SCRF=Check GenChk RB3LYP/6-31G(2df,p) Fr
 eq
 ----------------------------------------------------------------------

 Structure from the checkpoint file:  "CtCCpCtCCtNpCdN.chk"
 -------------------
 Title Card Required
 -------------------
 Charge =  0 Multiplicity = 1

                         Standard orientation:
 ---------------------------------------------------------------------
 Center     Atomic      Atomic             Coordinates (Angstroms)
 Number     Number       Type             X           Y           Z
 ---------------------------------------------------------------------
      1          6           0       -2.477049   -2.021827   -0.441328
      2          6           0       -1.834070   -1.125796    0.031799
      3          6           0       -1.087766    0.002068    0.594235
      4          6           0        0.348052   -0.118477    0.362873
      5          6           0        1.537270   -0.185561    0.167106
      6          6           0        2.883217   -0.278414   -0.048965
      7          7           0        4.027385   -0.354883   -0.231420
      8          6           0       -1.665676    1.338953    0.063509
      9          7           0       -1.047514    2.301401   -0.462686
     10          1           0       -3.036778   -2.823471   -0.857541
     11          1           0       -1.254911    0.015787    1.683932
     12          1           0       -2.748865    1.401342    0.192989
     13          1           0       -0.042403    2.115036   -0.536016
 ---------------------------------------------------------------------

 SCF Done:  E(RB3LYP) =  -378.491668050     A.U. after    1 cycles

 The electronic state is 1-A.
 Alpha  occ. eigenvalues --  -14.35853 -14.34430 -10.28250 -10.26472 -10.25403
 Alpha  occ. eigenvalues --  -10.25264 -10.24579 -10.21748 -10.20796  -0.93719
 Alpha  occ. eigenvalues --   -0.92728  -0.85592  -0.80175  -0.74956  -0.67624
 Alpha  occ. eigenvalues --   -0.62701  -0.57224  -0.53044  -0.51531  -0.51107
 Alpha  occ. eigenvalues --   -0.44412  -0.40077  -0.40009  -0.38511  -0.34848
 Alpha  occ. eigenvalues --   -0.31810  -0.31254  -0.30624  -0.29832  -0.27877
 Alpha virt. eigenvalues --   -0.05924  -0.05595  -0.02882   0.02480   0.03351
 Alpha virt. eigenvalues --    0.09163   0.10218   0.10688   0.12510   0.14286
 Alpha virt. eigenvalues --    0.15986   0.16408   0.19969   0.22636   0.26587

 Mulliken charges:
               1
     1  C   -0.430565
     2  C    0.325841
     3  C   -0.442266
     4  C    0.111183
     5  C    0.085867
     6  C    0.213712
     7  N   -0.325467
     8  C    0.078928
     9  N   -0.384268
    10  H    0.218167
    11  H    0.171219
    12  H    0.138813
    13  H    0.238836
 Sum of Mulliken charges =  -0.00000

 Dipole moment (field-independent basis, Debye):
    X=             -3.8763    Y=             -1.3665    Z=              1.3943  Tot=              4.3402
 Quadrupole moment (field-independent basis, Debye-Ang):
   XX=            -61.8425   YY=            -52.9215   ZZ=            -48.9069
   XY=              7.0422   XZ=              0.1613   YZ=              3.2376

  Exact polarizability: 128.371   8.757  73.510  -4.101   1.940  46.894
 Approx polarizability: 222.430  16.231 112.424 -15.866   5.188  77.532

                      1                      2                      3
                      A                      A                      A
 Frequencies --     65.2616                87.1743                93.6141
 Red. masses --      6.9277                 3.9408                 4.6670
 Frc consts  --      0.0174                 0.0176                 0.0241
 IR Inten    --      1.3155                 0.8699                 1.4454

                      4                      5                      6
                      A                      A                      A
 Frequencies --    162.8839               207.6347               224.7708
 Red. masses --      3.9896                 8.6358                 4.1430
 Frc consts  --      0.0624                 0.2194                 0.1233
 IR Inten    --      2.1125                 1.3549                 1.5732

                      7                      8                      9
                      A                      A                      A
 Frequencies --    342.0733               389.3713               462.9630
 Red. masses --      7.0633                 7.2125                 4.7138
 Frc consts  --      0.4870                 0.6443                 0.5953
 IR Inten    --      1.8900                 4.4231                11.8231

                     10                     11                     12
                      A                      A                      A
 Frequencies --    491.6008               566.3234               574.2409
 Red. masses --      7.5923                 9.0392                11.2318
 Frc consts  --      1.0811                 1.7081                 2.1822
 IR Inten    --      4.7456                 3.8279                 3.4157

                     13                     14                     15
                      A                      A                      A
 Frequencies --    628.2374               644.6796               678.2940
 Red. masses --      4.7887                 1.3287                 1.6427
 Frc consts  --      1.1136                 0.3254                 0.4453
 IR Inten    --      6.3765                35.5618                16.8765

                     16                     17                     18
                      A                      A                      A
 Frequencies --    684.8813               854.4993               932.4101
 Red. masses --      1.7717                 3.1549                 3.9993
 Frc consts  --      0.4896                 1.3572                 2.0485
 IR Inten    --     43.4932                 1.3256                 0.4785

                     19                     20                     21
                      A                      A                      A
 Frequencies --    995.4884              1139.0281              1167.1918
 Red. masses --      3.6867                 1.0792                 2.9307
 Frc consts  --      2.1526                 0.8250                 2.3524
 IR Inten    --      3.1087                44.9254                 5.0925

                     22                     23                     24
                      A                      A                      A
 Frequencies --   1205.1270              1232.7865              1307.9055
 Red. masses --      1.2403                 1.2639                 1.8107
 Frc consts  --      1.0613                 1.1317                 1.8250
 IR Inten    --     27.3519                76.8607                61.0599

                     25                     26                     27
                      A                      A                      A
 Frequencies --   1407.5746              1738.4382              2245.9984
 Red. masses --      1.2088                 8.3969                 5.8795
 Frc consts  --      1.4111                14.9515                17.4748
 IR Inten    --     36.0840                57.6948                 0.5609

                     28                     29                     30
                      A                      A                      A
 Frequencies --   2270.1691              2406.4118              2978.9510
 Red. masses --     12.3454                12.1919                 1.0791
 Frc consts  --     37.4861                41.5969                 5.6418
 IR Inten    --      0.1859                64.3790                 1.6673

                     31                     32                     33
                      A                      A                      A
 Frequencies --   3110.2529              3422.8551              3500.2682
 Red. masses --      1.0901                 1.0738                 1.1646
 Frc consts  --      6.2132                 7.4125                 8.4071
 IR Inten    --     19.1620                 3.3249                80.9976

 - Thermochemistry -
 -------------------
 Temperature   298.150 Kelvin.  Pressure   1.00000 Atm.
 Atom     1 has atomic number  6 and mass  12.00000

 Molecular mass:   116.03745 amu.
 Principal axes and moments of inertia in atomic units:
                           1         2         3
     Eigenvalues --   692.541692028.044542604.63052
           X            0.99993   0.01216  -0.00000
           Y           -0.01216   0.99988   0.00977
           Z            0.00012  -0.00977   0.99995
 This molecule is an asymmetric top.
 Rotational symmetry number  1.
 Warning -- assumption of classical behavior for rotation
           may cause significant error
 Rotational temperatures (Kelvin)      0.12507     0.04271     0.03325
 Rotational constants (GHZ):           2.60597     0.88989     0.69290
 Zero-point vibrational energy     228602.5 (Joules/Mol)
                                   54.63732 (Kcal/Mol)
 Warning -- explicit consideration of  12 degrees of freedom as
           vibrations may cause significant error
 Vibrational temperatures:     93.90   125.42   134.69   234.35   298.74
          (Kelvin)            323.40   492.17   560.22   666.10   707.30
                              814.81   826.20   903.89   927.55   975.91
                              985.39  1229.43  1341.53  1432.29  1638.81
                             1679.33  1733.91  1773.70  1881.78  2025.19
                             2501.22  3231.49  3266.27  3462.29  4286.05
                             4474.96  4924.73  5036.11

 Zero-point correction=                           0.087070 (Hartree/Particle)
 Thermal correction to Energy=                    0.096197
 Thermal correction to Enthalpy=                  0.097141
 Thermal correction to Gibbs Free Energy=         0.052173
 Sum of electronic and zero-point Energies=           -378.404598
 Sum of electronic and thermal Energies=              -378.395471
 Sum of electronic and thermal Enthalpies=            -378.394527
 Sum of electronic and thermal Free Energies=         -378.439495

                     E (Thermal)             CV                S
                      KCal/Mol        Cal/Mol-Kelvin    Cal/Mol-Kelvin
 Total                   60.364             31.439             94.642
 Electronic               0.000              0.000              0.000
 Translational            0.889              2.981             40.161
 Rotational               0.889              2.981             29.682
 Vibrational             58.587             25.477             24.799
 Vibration     1          0.597              1.971              4.291
 Vibration     2          0.601              1.958              3.723
 Vibration     3          0.603              1.954              3.583
 Vibration     4          0.623              1.888              2.516
 Vibration     5          0.641              1.829              2.064
 Vibration     6          0.649              1.803              1.920
 Vibration     7          0.721              1.591              1.202
 Vibration     8          0.757              1.493              1.003
 Vibration     9          0.821              1.332              0.758
 Vibration    10          0.847              1.269              0.679
 Vibration    11          0.922              1.104              0.511
 Vibration    12          0.931              1.087              0.496

 Optimization completed.
    -- Stationary point found.
 Normal termination of Gaussian 16 at Tue Jun  1 18:32:14 2021.
