 Gaussian 16, Revision A.03,
 Gaussian 16:  ES64L-G16RevA.03 25-Dec-2016

 -----------------------------
 # opt freq b3lyp/6-31g(2df,p)
 -----------------------------

 -------------------
 Title Card Required
 -------------------
 Symbolic Z-matrix:
 Charge =  0 Multiplicity = 1

 SCF Done:  E(RB3LYP) =  -384.580650612     A.U. after   13 cycles
 SCF Done:  E(RB3LYP) =  -384.605662489     A.U. after   12 cycles
 SCF Done:  E(RB3LYP) =  -384.609939117     A.U. after   12 cycles
 SCF Done:  E(RB3LYP) =  -384.614436398     A.U. after   12 cycles
 SCF Done:  E(RB3LYP) =  -384.614668832     A.U. after   12 cycles
 SCF Done:  E(RB3LYP) =  -384.608993029     A.U. after   14 cycles
 SCF Done:  E(RB3LYP) =  -384.615675223     A.U. after   12 cycles
 SCF Done:  E(RB3LYP) =  -384.613409297     A.U. after   13 cycles
 SCF Done:  E(RB3LYP) =  -384.616845300     A.U. after   12 cycles
 SCF Done:  E(RB3LYP) =  -384.616754084     A.U. after   10 cycles
 SCF Done:  E(RB3LYP) =  -384.617979532     A.U. after   11 cycles
 SCF Done:  E(RB3LYP) =  -384.618133074     A.U. after   11 cycles
 SCF Done:  E(RB3LYP) =  -384.618063475     A.U. after   10 cycles
 SCF Done:  E(RB3LYP) =  -384.618144343     A.U. after   11 cycles
 SCF Done:  E(RB3LYP) =  -384.618145962     A.U. after    9 cycles
 SCF Done:  E(RB3LYP) =  -384.618146702     A.U. after    9 cycles
 SCF Done:  E(RB3LYP) =  -384.618146712     A.U. after    7 cycles
 SCF Done:  E(RB3LYP) =  -384.618146855     A.U. after    8 cycles
 SCF Done:  E(RB3LYP) =  -384.618146900     A.U. after    7 cycles
 Optimization completed.
    -- Stationary point found.
 Normal termination of Gaussian 16 at Mon May 31 19:59:00 2021.

 ----------------------------------------------------------------------
 #N Geom=AllCheck Guess=TCheck SCRF=Check GenChk RB3LYP/6-31G(2df,p) Fr
 eq
 ----------------------------------------------------------------------

 Structure from the checkpoint file:  "CtCCCNpCCpCN.chk"
 -------------------
 Title Card Required
 -------------------
 Charge =  0 Multiplicity = 1

                         Standard orientation:
 ---------------------------------------------------------------------
 Center     Atomic      Atomic             Coordinates (Angstroms)
 Number     Number       Type             X           Y           Z
 ---------------------------------------------------------------------
      1          6           0       -4.209666   -0.304446    0.013418
      2          6           0       -3.069726    0.016735   -0.193111
      3          6           0       -1.674961    0.371179   -0.421450
      4          6           0       -0.701456   -0.578032    0.310803
      5          7           0        0.687473   -0.236777    0.047994
      6          6           0        1.153703    0.984646    0.725886
      7          6           0        1.614751    2.075805   -0.242131
      8          6           0        1.602464   -1.356024    0.184255
      9          7           0        2.874186   -1.026290   -0.448836
     10          1           0       -5.221370   -0.575089    0.187108
     11          1           0       -1.502773    1.403809   -0.094637
     12          1           0       -1.444180    0.345336   -1.492978
     13          1           0       -0.885159   -1.595004   -0.049253
     14          1           0       -0.947917   -0.575741    1.388091
     15          1           0        1.983442    0.731299    1.398369
     16          1           0        0.346219    1.371279    1.362014
     17          1           0        2.459977    1.716908   -0.833656
     18          1           0        1.930012    2.970371    0.307026
     19          1           0        0.811220    2.361803   -0.928193
     20          1           0        1.102328   -2.238704   -0.245926
     21          1           0        1.828198   -1.597189    1.241987
     22          1           0        2.754080   -0.994769   -1.456898
     23          1           0        3.563664   -1.742017   -0.243180
 ---------------------------------------------------------------------

 SCF Done:  E(RB3LYP) =  -384.618146900     A.U. after    1 cycles

 The electronic state is 1-A.
 Alpha  occ. eigenvalues --  -14.31464 -14.30974 -10.22936 -10.20945 -10.20170
 Alpha  occ. eigenvalues --  -10.19824 -10.17672 -10.16564 -10.16189  -0.93055
 Alpha  occ. eigenvalues --   -0.86119  -0.78640  -0.73969  -0.70992  -0.64518
 Alpha  occ. eigenvalues --   -0.62922  -0.56965  -0.52295  -0.49989  -0.48427
 Alpha  occ. eigenvalues --   -0.46772  -0.45911  -0.43477  -0.41595  -0.40666
 Alpha  occ. eigenvalues --   -0.39603  -0.38076  -0.36581  -0.35413  -0.34111
 Alpha  occ. eigenvalues --   -0.32789  -0.26119  -0.25922  -0.24241  -0.20965
 Alpha virt. eigenvalues --    0.05799   0.06197   0.08188   0.10304   0.10928
 Alpha virt. eigenvalues --    0.12970   0.13366   0.13854   0.14610   0.15526
 Alpha virt. eigenvalues --    0.17174   0.17519   0.17972   0.19197   0.20060

 Mulliken charges:
               1
     1  C   -0.441983
     2  C    0.298933
     3  C   -0.358029
     4  C   -0.150633
     5  N   -0.048237
     6  C   -0.124803
     7  C   -0.361802
     8  C   -0.116901
     9  N   -0.496111
    10  H    0.192580
    11  H    0.132655
    12  H    0.132294
    13  H    0.107962
    14  H    0.092079
    15  H    0.101400
    16  H    0.089265
    17  H    0.128413
    18  H    0.101289
    19  H    0.109021
    20  H    0.082538
    21  H    0.078388
    22  H    0.225914
    23  H    0.225770
 Sum of Mulliken charges =  -0.00000

 Dipole moment (field-independent basis, Debye):
    X=              0.7981    Y=             -1.1937    Z=             -0.0718  Tot=              1.4377
 Quadrupole moment (field-independent basis, Debye-Ang):
   XX=            -55.2420   YY=            -54.0748   ZZ=            -55.7425
   XY=             -3.1450   XZ=             -1.7138   YZ=              1.0544

  Exact polarizability: 119.986   3.991  81.772  -3.524  -1.628  69.951
 Approx polarizability: 157.551   9.677 112.900  -7.381  -2.381 107.015

                      1                      2                      3
                      A                      A                      A
 Frequencies --     41.8024                59.3941                77.3336
 Red. masses --      2.4136                 3.4946                 2.8153
 Frc consts  --      0.0025                 0.0073                 0.0099
 IR Inten    --      0.0569                 0.3061                 0.0728

                      4                      5                      6
                      A                      A                      A
 Frequencies --    117.4437               151.6989               198.9289
 Red. masses --      2.9481                 2.0910                 3.0036
 Frc consts  --      0.0240                 0.0284                 0.0700
 IR Inten    --      0.1764                 3.1636                 2.0897

                      7                      8                      9
                      A                      A                      A
 Frequencies --    232.3798               282.7773               307.2933
 Red. masses --      1.1384                 1.1782                 2.6874
 Frc consts  --      0.0362                 0.0555                 0.1495
 IR Inten    --      1.1392                37.7708                 0.1815

                     10                     11                     12
                      A                      A                      A
 Frequencies --    333.6592               354.5267               399.8423
 Red. masses --      2.3932                 3.1107                 2.9489
 Frc consts  --      0.1570                 0.2304                 0.2778
 IR Inten    --      1.9989                 6.3097                 5.0011

                     13                     14                     15
                      A                      A                      A
 Frequencies --    431.1254               484.0787               592.8590
 Red. masses --      3.5489                 3.2324                 3.1932
 Frc consts  --      0.3886                 0.4463                 0.6613
 IR Inten    --      1.5162                 5.4069                16.7651

                     16                     17                     18
                      A                      A                      A
 Frequencies --    617.3805               640.9306               768.8077
 Red. masses --      1.2036                 1.2271                 1.2571
 Frc consts  --      0.2703                 0.2970                 0.4378
 IR Inten    --     43.9007                41.8936                15.4056

                     19                     20                     21
                      A                      A                      A
 Frequencies --    783.3864               794.3481               855.5349
 Red. masses --      1.1990                 2.2864                 1.3110
 Frc consts  --      0.4335                 0.8500                 0.5654
 IR Inten    --      5.6039                 7.7817               104.3016

                     22                     23                     24
                      A                      A                      A
 Frequencies --    950.7804               981.3589              1019.1029
 Red. masses --      2.5857                 2.5436                 3.8660
 Frc consts  --      1.3771                 1.4433                 2.3656
 IR Inten    --      4.5196                 6.4081                 4.9825

                     25                     26                     27
                      A                      A                      A
 Frequencies --   1037.1288              1058.3988              1084.2686
 Red. masses --      1.8142                 1.9930                 2.2102
 Frc consts  --      1.1498                 1.3154                 1.5309
 IR Inten    --      3.6084                13.2514                 7.3375

                     28                     29                     30
                      A                      A                      A
 Frequencies --   1103.0061              1107.5090              1172.3257
 Red. masses --      2.1441                 2.0682                 1.5124
 Frc consts  --      1.5369                 1.4947                 1.2246
 IR Inten    --     45.2389                 7.2201                42.1772

                     31                     32                     33
                      A                      A                      A
 Frequencies --   1206.9551              1250.2875              1263.4218
 Red. masses --      1.9187                 1.5834                 1.5362
 Frc consts  --      1.6468                 1.4583                 1.4448
 IR Inten    --     40.0614                25.6960                 4.4928

                     34                     35                     36
                      A                      A                      A
 Frequencies --   1303.8015              1317.9314              1355.2178
 Red. masses --      1.3532                 1.1315                 1.2939
 Frc consts  --      1.3553                 1.1579                 1.4002
 IR Inten    --      9.1740                 5.5819                13.7662

                     37                     38                     39
                      A                      A                      A
 Frequencies --   1368.5326              1390.0980              1401.4539
 Red. masses --      1.2373                 1.2312                 1.4284
 Frc consts  --      1.3654                 1.4017                 1.6529
 IR Inten    --      4.9097                 2.3876                51.8847

                     40                     41                     42
                      A                      A                      A
 Frequencies --   1409.5825              1457.7002              1472.0926
 Red. masses --      1.3067                 1.2653                 1.0803
 Frc consts  --      1.5297                 1.5841                 1.3793
 IR Inten    --     23.5910                24.0938                 0.9289

                     43                     44                     45
                      A                      A                      A
 Frequencies --   1486.3287              1489.3204              1500.3133
 Red. masses --      1.0704                 1.0630                 1.0939
 Frc consts  --      1.3933                 1.3892                 1.4507
 IR Inten    --      2.7346                 3.8639                 2.8884

                     46                     47                     48
                      A                      A                      A
 Frequencies --   1509.5607              1525.9985              1641.1892
 Red. masses --      1.0696                 1.1045                 1.1005
 Frc consts  --      1.4361                 1.5154                 1.7464
 IR Inten    --      3.8219                 3.6249                31.5177

                     49                     50                     51
                      A                      A                      A
 Frequencies --   2237.9201              2902.2877              2937.4436
 Red. masses --      5.9385                 1.0683                 1.0724
 Frc consts  --     17.5234                 5.3019                 5.4520
 IR Inten    --      4.6877                85.9934                65.3415

                     52                     53                     54
                      A                      A                      A
 Frequencies --   2966.1407              3003.0077              3030.6334
 Red. masses --      1.0897                 1.0584                 1.0578
 Frc consts  --      5.6485                 5.6235                 5.7243
 IR Inten    --     72.6477                40.3406                10.6238

                     55                     56                     57
                      A                      A                      A
 Frequencies --   3033.3378              3043.8099              3059.8313
 Red. masses --      1.0400                 1.1013                 1.0945
 Frc consts  --      5.6378                 6.0114                 6.0376
 IR Inten    --     34.4730                30.4524                 4.7764

                     58                     59                     60
                      A                      A                      A
 Frequencies --   3079.4171              3099.7491              3129.6239
 Red. masses --      1.0944                 1.1002                 1.1007
 Frc consts  --      6.1148                 6.2286                 6.3522
 IR Inten    --     37.6137                42.2041                23.8173

                     61                     62                     63
                      A                      A                      A
 Frequencies --   3493.9160              3507.9298              3582.2945
 Red. masses --      1.0490                 1.1618                 1.0929
 Frc consts  --      7.5445                 8.4234                 8.2635
 IR Inten    --      0.3243                69.8517                 0.5479

 - Thermochemistry -
 -------------------
 Temperature   298.150 Kelvin.  Pressure   1.00000 Atm.
 Atom     1 has atomic number  6 and mass  12.00000

 Molecular mass:   126.11570 amu.
 Principal axes and moments of inertia in atomic units:
                           1         2         3
     Eigenvalues --   614.940022378.639982796.69076
           X            0.99999   0.00381  -0.00289
           Y           -0.00383   0.99997  -0.00727
           Z            0.00286   0.00728   0.99997
 This molecule is an asymmetric top.
 Rotational symmetry number  1.
 Warning -- assumption of classical behavior for rotation
           may cause significant error
 Rotational temperatures (Kelvin)      0.14085     0.03641     0.03097
 Rotational constants (GHZ):           2.93482     0.75873     0.64531
 Zero-point vibrational energy     535308.2 (Joules/Mol)
                                  127.94173 (Kcal/Mol)
 Warning -- explicit consideration of  16 degrees of freedom as
           vibrations may cause significant error
 Vibrational temperatures:     60.14    85.45   111.27   168.98   218.26
          (Kelvin)            286.21   334.34   406.85   442.13   480.06
                              510.08   575.28   620.29   696.48   852.99
                              888.27   922.16  1106.14  1127.12  1142.89
                             1230.92  1367.96  1411.96  1466.26  1492.20
                             1522.80  1560.02  1586.98  1593.46  1686.72
                             1736.54  1798.88  1817.78  1875.88  1896.21
                             1949.86  1969.01  2000.04  2016.38  2028.07
                             2097.31  2118.01  2138.50  2142.80  2158.62
                             2171.92  2195.57  2361.31  3219.87  4175.74
                             4226.33  4267.61  4320.66  4360.41  4364.30
                             4379.36  4402.41  4430.59  4459.85  4502.83
                             5026.97  5047.13  5154.12

 Zero-point correction=                           0.203888 (Hartree/Particle)
 Thermal correction to Energy=                    0.215184
 Thermal correction to Enthalpy=                  0.216128
 Thermal correction to Gibbs Free Energy=         0.166456
 Sum of electronic and zero-point Energies=           -384.414259
 Sum of electronic and thermal Energies=              -384.402963
 Sum of electronic and thermal Enthalpies=            -384.402019
 Sum of electronic and thermal Free Energies=         -384.451691

                     E (Thermal)             CV                S
                      KCal/Mol        Cal/Mol-Kelvin    Cal/Mol-Kelvin
 Total                  135.030             40.533            104.543
 Electronic               0.000              0.000              0.000
 Translational            0.889              2.981             40.410
 Rotational               0.889              2.981             29.793
 Vibrational            133.252             34.571             34.340
 Vibration     1          0.594              1.980              5.172
 Vibration     2          0.597              1.974              4.477
 Vibration     3          0.599              1.964              3.957
 Vibration     4          0.608              1.935              3.142
 Vibration     5          0.619              1.901              2.651
 Vibration     6          0.637              1.841              2.143
 Vibration     7          0.653              1.791              1.860
 Vibration     8          0.682              1.706              1.517
 Vibration     9          0.697              1.660              1.377
 Vibration    10          0.715              1.608              1.242
 Vibration    11          0.730              1.566              1.146
 Vibration    12          0.766              1.470              0.963
 Vibration    13          0.792              1.402              0.855
 Vibration    14          0.840              1.285              0.699
 Vibration    15          0.950              1.047              0.462
 Vibration    16          0.977              0.995              0.421

 Optimization completed.
    -- Stationary point found.
 Normal termination of Gaussian 16 at Mon May 31 20:37:05 2021.
