 Gaussian 16, Revision A.03,
 Gaussian 16:  ES64L-G16RevA.03 25-Dec-2016

 -----------------------------
 # opt freq b3lyp/6-31g(2df,p)
 -----------------------------

 -------------------
 Title Card Required
 -------------------
 Symbolic Z-matrix:
 Charge =  0 Multiplicity = 1

 SCF Done:  E(RB3LYP) =  -460.809172857     A.U. after   15 cycles
 SCF Done:  E(RB3LYP) =  -460.829838154     A.U. after   12 cycles
 SCF Done:  E(RB3LYP) =  -460.831169556     A.U. after   12 cycles
 SCF Done:  E(RB3LYP) =  -460.830669366     A.U. after   12 cycles
 SCF Done:  E(RB3LYP) =  -460.830361949     A.U. after   12 cycles
 SCF Done:  E(RB3LYP) =  -460.829663818     A.U. after   12 cycles
 SCF Done:  E(RB3LYP) =  -460.831299427     A.U. after    9 cycles
 SCF Done:  E(RB3LYP) =  -460.831142986     A.U. after   12 cycles
 SCF Done:  E(RB3LYP) =  -460.831685571     A.U. after   12 cycles
 SCF Done:  E(RB3LYP) =  -460.831243306     A.U. after   12 cycles
 SCF Done:  E(RB3LYP) =  -460.831952069     A.U. after   11 cycles
 SCF Done:  E(RB3LYP) =  -460.832022156     A.U. after   11 cycles
 SCF Done:  E(RB3LYP) =  -460.832053308     A.U. after   10 cycles
 SCF Done:  E(RB3LYP) =  -460.832061931     A.U. after   10 cycles
 SCF Done:  E(RB3LYP) =  -460.832064188     A.U. after    9 cycles
 SCF Done:  E(RB3LYP) =  -460.832064733     A.U. after    8 cycles
 SCF Done:  E(RB3LYP) =  -460.832064942     A.U. after    8 cycles
 SCF Done:  E(RB3LYP) =  -460.832064998     A.U. after    6 cycles
 SCF Done:  E(RB3LYP) =  -460.832065001     A.U. after    7 cycles
 Optimization completed.
    -- Stationary point found.
 Normal termination of Gaussian 16 at Tue Jun  1 09:30:29 2021.

 ----------------------------------------------------------------------
 #N Geom=AllCheck Guess=TCheck SCRF=Check GenChk RB3LYP/6-31G(2df,p) Fr
 eq
 ----------------------------------------------------------------------

 Structure from the checkpoint file:  "CtCCpCppCCtNpCNCC.chk"
 -------------------
 Title Card Required
 -------------------
 Charge =  0 Multiplicity = 1

                         Standard orientation:
 ---------------------------------------------------------------------
 Center     Atomic      Atomic             Coordinates (Angstroms)
 Number     Number       Type             X           Y           Z
 ---------------------------------------------------------------------
      1          6           0       -2.455761    2.289164   -0.308306
      2          6           0       -1.664352    1.410133   -0.095051
      3          6           0       -0.677310    0.357662    0.150926
      4          6           0       -0.598501    0.030393    1.656283
      5          6           0       -1.059161   -0.920267   -0.657891
      6          6           0       -2.353743   -1.486978   -0.291076
      7          7           0       -3.372378   -1.946350    0.003189
      8          6           0        0.706473    0.864345   -0.361500
      9          7           0        1.748041   -0.150939   -0.255511
     10          6           0        3.096287    0.376075   -0.037362
     11          6           0        4.117601   -0.755657    0.014723
     12          1           0       -3.168745    3.056016   -0.486539
     13          1           0       -1.537332   -0.399044    2.013585
     14          1           0       -0.400646    0.940214    2.229100
     15          1           0        0.215065   -0.678260    1.830044
     16          1           0       -0.287918   -1.678393   -0.485701
     17          1           0       -1.073580   -0.689484   -1.728952
     18          1           0        0.988210    1.717362    0.263775
     19          1           0        0.582991    1.255221   -1.383980
     20          1           0        1.759811   -0.723033   -1.093409
     21          1           0        3.091924    0.915274    0.917794
     22          1           0        3.395054    1.109277   -0.808477
     23          1           0        3.857270   -1.474643    0.796741
     24          1           0        5.118771   -0.364601    0.217154
     25          1           0        4.160286   -1.294114   -0.939361
 ---------------------------------------------------------------------

 SCF Done:  E(RB3LYP) =  -460.832065001     A.U. after    1 cycles

 The electronic state is 1-A.
 Alpha  occ. eigenvalues --  -14.32964 -14.32141 -10.23685 -10.23420 -10.22330
 Alpha  occ. eigenvalues --  -10.21833 -10.21535 -10.18536 -10.18518 -10.18196
 Alpha  occ. eigenvalues --  -10.17933  -0.92145  -0.89647  -0.84321  -0.75658
 Alpha  occ. eigenvalues --   -0.74905  -0.72306  -0.68025  -0.62191  -0.60906
 Alpha  occ. eigenvalues --   -0.53951  -0.51303  -0.50303  -0.48307  -0.47043
 Alpha  occ. eigenvalues --   -0.45344  -0.44576  -0.43696  -0.39295  -0.38965
 Alpha  occ. eigenvalues --   -0.38076  -0.37535  -0.36714  -0.35931  -0.35607
 Alpha  occ. eigenvalues --   -0.34792  -0.31864  -0.31769  -0.27430  -0.27240
 Alpha  occ. eigenvalues --   -0.23802
 Alpha virt. eigenvalues --    0.03267   0.03562   0.04822   0.05520   0.07187
 Alpha virt. eigenvalues --    0.09248   0.10646   0.12110   0.12496   0.13550
 Alpha virt. eigenvalues --    0.14516   0.14856   0.15211   0.16008   0.16912

 Mulliken charges:
               1
     1  C   -0.467475
     2  C    0.345830
     3  C    0.030755
     4  C   -0.421785
     5  C   -0.369703
     6  C    0.279227
     7  N   -0.316081
     8  C   -0.183064
     9  N   -0.297745
    10  C   -0.109244
    11  C   -0.390871
    12  H    0.201187
    13  H    0.146138
    14  H    0.123074
    15  H    0.133023
    16  H    0.156780
    17  H    0.148321
    18  H    0.118656
    19  H    0.098395
    20  H    0.216893
    21  H    0.110082
    22  H    0.084216
    23  H    0.129004
    24  H    0.120940
    25  H    0.113445
 Sum of Mulliken charges =  -0.00000

 Dipole moment (field-independent basis, Debye):
    X=              4.4736    Y=              1.8676    Z=             -1.2999  Tot=              5.0190
 Quadrupole moment (field-independent basis, Debye-Ang):
   XX=            -78.0044   YY=            -68.9456   ZZ=            -64.6222
   XY=            -10.5054   XZ=              0.6733   YZ=              1.6345

  Exact polarizability: 130.162  -6.097 102.847   0.679  -3.313  83.157
 Approx polarizability: 174.288  -9.651 154.444  -0.848  -7.047 126.219

                      1                      2                      3
                      A                      A                      A
 Frequencies --     27.3353                60.8041                78.2760
 Red. masses --      2.7531                 2.8741                 2.6103
 Frc consts  --      0.0012                 0.0063                 0.0094
 IR Inten    --      1.7223                 1.0682                 2.3476

                      4                      5                      6
                      A                      A                      A
 Frequencies --     86.0724               126.3651               154.6707
 Red. masses --      3.8657                 4.4067                 3.1916
 Frc consts  --      0.0169                 0.0415                 0.0450
 IR Inten    --      1.8596                 5.2367                 0.0285

                      7                      8                      9
                      A                      A                      A
 Frequencies --    190.5968               214.6323               248.4661
 Red. masses --      3.5241                 2.5389                 1.1011
 Frc consts  --      0.0754                 0.0689                 0.0401
 IR Inten    --      1.6052                 2.6234                 0.9094

                     10                     11                     12
                      A                      A                      A
 Frequencies --    253.6979               262.2187               338.7670
 Red. masses --      1.4562                 2.3230                 2.1291
 Frc consts  --      0.0552                 0.0941                 0.1440
 IR Inten    --      0.7608                 0.8807                 0.3902

                     13                     14                     15
                      A                      A                      A
 Frequencies --    348.9386               382.5007               404.9704
 Red. masses --      2.6325                 4.1482                 3.1463
 Frc consts  --      0.1889                 0.3576                 0.3040
 IR Inten    --      1.3973                 2.1623                 0.4426

                     16                     17                     18
                      A                      A                      A
 Frequencies --    460.2884               507.2556               549.3616
 Red. masses --      5.4651                 4.1874                 4.4185
 Frc consts  --      0.6822                 0.6348                 0.7857
 IR Inten    --      1.5922                 5.2475                 3.9664

                     19                     20                     21
                      A                      A                      A
 Frequencies --    628.0056               641.4117               652.0652
 Red. masses --      4.3261                 1.2308                 1.2364
 Frc consts  --      1.0052                 0.2983                 0.3097
 IR Inten    --      2.3153                40.5713                40.0244

                     22                     23                     24
                      A                      A                      A
 Frequencies --    731.5572               763.6529               817.4716
 Red. masses --      3.7226                 1.3184                 1.1108
 Frc consts  --      1.1738                 0.4530                 0.4374
 IR Inten    --      5.0220                53.5925                 0.8917

                     25                     26                     27
                      A                      A                      A
 Frequencies --    875.1415               896.7662               929.1641
 Red. masses --      2.2154                 1.7979                 1.9999
 Frc consts  --      0.9997                 0.8519                 1.0173
 IR Inten    --      4.7601                 0.3616                 1.8259

                     28                     29                     30
                      A                      A                      A
 Frequencies --    950.5551               983.1646               989.6981
 Red. masses --      2.3036                 2.0226                 1.8651
 Frc consts  --      1.2264                 1.1519                 1.0763
 IR Inten    --      2.2899                 2.0093                 6.0585

                     31                     32                     33
                      A                      A                      A
 Frequencies --   1041.3686              1108.2126              1131.7640
 Red. masses --      3.0661                 1.8308                 2.2221
 Frc consts  --      1.9591                 1.3248                 1.6769
 IR Inten    --      3.4023                18.3069                35.1885

                     34                     35                     36
                      A                      A                      A
 Frequencies --   1147.1671              1162.8115              1172.8140
 Red. masses --      2.7681                 2.0032                 1.8955
 Frc consts  --      2.1463                 1.5959                 1.5362
 IR Inten    --     53.4062                11.3334                 1.7277

                     37                     38                     39
                      A                      A                      A
 Frequencies --   1223.7746              1272.6946              1292.4765
 Red. masses --      2.4581                 1.3561                 1.3068
 Frc consts  --      2.1690                 1.2941                 1.2862
 IR Inten    --      7.7533                22.4505                 3.1494

                     40                     41                     42
                      A                      A                      A
 Frequencies --   1322.6716              1336.1889              1365.5721
 Red. masses --      1.4237                 1.2318                 1.3009
 Frc consts  --      1.4675                 1.2957                 1.4293
 IR Inten    --      7.2324                 5.5772                24.5880

                     43                     44                     45
                      A                      A                      A
 Frequencies --   1395.7097              1407.5505              1422.1479
 Red. masses --      1.2427                 1.2410                 1.3564
 Frc consts  --      1.4263                 1.4486                 1.6163
 IR Inten    --      3.7707                 8.5012                 6.4679

                     46                     47                     48
                      A                      A                      A
 Frequencies --   1468.9095              1482.7933              1487.8921
 Red. masses --      1.1021                 1.0950                 1.0662
 Frc consts  --      1.4011                 1.4185                 1.3907
 IR Inten    --      8.3907                 6.1060                 5.7985

                     49                     50                     51
                      A                      A                      A
 Frequencies --   1497.5742              1499.0953              1501.2237
 Red. masses --      1.0393                 1.0630                 1.0553
 Frc consts  --      1.3733                 1.4075                 1.4012
 IR Inten    --      7.8804                 4.3634                 9.6594

                     52                     53                     54
                      A                      A                      A
 Frequencies --   1506.7927              1524.3162              2235.1420
 Red. masses --      1.1379                 1.0903                 5.9207
 Frc consts  --      1.5222                 1.4926                17.4275
 IR Inten    --     14.1779                 4.8422                 0.2342

                     55                     56                     57
                      A                      A                      A
 Frequencies --   2362.9507              2935.4076              2974.9309
 Red. masses --     12.6158                 1.0729                 1.0708
 Frc consts  --     41.5025                 5.4471                 5.5834
 IR Inten    --      9.3201                76.6103                51.4111

                     58                     59                     60
                      A                      A                      A
 Frequencies --   3032.6391              3043.1529              3043.2469
 Red. masses --      1.0423                 1.0608                 1.0780
 Frc consts  --      5.6481                 5.7879                 5.8821
 IR Inten    --     15.0618                18.3898                11.0956

                     61                     62                     63
                      A                      A                      A
 Frequencies --   3049.8313              3077.7823              3091.6183
 Red. masses --      1.0348                 1.0914                 1.1020
 Frc consts  --      5.6710                 6.0912                 6.2061
 IR Inten    --      9.4121                15.2728                 3.2504

                     64                     65                     66
                      A                      A                      A
 Frequencies --   3100.4392              3121.0936              3126.0583
 Red. masses --      1.0983                 1.1024                 1.1022
 Frc consts  --      6.2205                 6.3271                 6.3458
 IR Inten    --     34.3827                25.2949                15.7894

                     67                     68                     69
                      A                      A                      A
 Frequencies --   3135.8648              3500.8339              3515.8713
 Red. masses --      1.1031                 1.1623                 1.0737
 Frc consts  --      6.3910                 8.3929                 7.8197
 IR Inten    --      9.1054                71.4045                 0.5331

 - Thermochemistry -
 -------------------
 Temperature   298.150 Kelvin.  Pressure   1.00000 Atm.
 Atom     1 has atomic number  6 and mass  12.00000

 Molecular mass:   150.11570 amu.
 Principal axes and moments of inertia in atomic units:
                           1         2         3
     Eigenvalues --  1022.643833157.694733713.35064
           X            0.99975  -0.02222  -0.00265
           Y            0.02222   0.99975   0.00021
           Z            0.00264  -0.00027   1.00000
 This molecule is an asymmetric top.
 Rotational symmetry number  1.
 Warning -- assumption of classical behavior for rotation
           may cause significant error
 Rotational temperatures (Kelvin)      0.08470     0.02743     0.02333
 Rotational constants (GHZ):           1.76478     0.57154     0.48601
 Zero-point vibrational energy     560284.5 (Joules/Mol)
                                  133.91121 (Kcal/Mol)
 Warning -- explicit consideration of  18 degrees of freedom as
           vibrations may cause significant error
 Vibrational temperatures:     39.33    87.48   112.62   123.84   181.81
          (Kelvin)            222.54   274.23   308.81   357.49   365.01
                              377.27   487.41   502.04   550.33   582.66
                              662.25   729.83   790.41   903.56   922.85
                              938.18  1052.55  1098.73  1176.16  1259.13
                             1290.25  1336.86  1367.64  1414.55  1423.95
                             1498.30  1594.47  1628.36  1650.52  1673.03
                             1687.42  1760.74  1831.12  1859.59  1903.03
                             1922.48  1964.75  2008.11  2025.15  2046.15
                             2113.43  2133.41  2140.74  2154.68  2156.86
                             2159.93  2167.94  2193.15  3215.87  3399.76
                             4223.40  4280.26  4363.29  4378.42  4378.55
                             4388.03  4428.24  4448.15  4460.84  4490.56
                             4497.70  4511.81  5036.92  5058.55

 Zero-point correction=                           0.213401 (Hartree/Particle)
 Thermal correction to Energy=                    0.226605
 Thermal correction to Enthalpy=                  0.227549
 Thermal correction to Gibbs Free Energy=         0.173190
 Sum of electronic and zero-point Energies=           -460.618664
 Sum of electronic and thermal Energies=              -460.605460
 Sum of electronic and thermal Enthalpies=            -460.604516
 Sum of electronic and thermal Free Energies=         -460.658875

                     E (Thermal)             CV                S
                      KCal/Mol        Cal/Mol-Kelvin    Cal/Mol-Kelvin
 Total                  142.197             47.498            114.409
 Electronic               0.000              0.000              0.000
 Translational            0.889              2.981             40.929
 Rotational               0.889              2.981             30.862
 Vibrational            140.419             41.537             42.618
 Vibration     1          0.593              1.984              6.014
 Vibration     2          0.597              1.973              4.431
 Vibration     3          0.600              1.964              3.934
 Vibration     4          0.601              1.959              3.747
 Vibration     5          0.611              1.927              3.001
 Vibration     6          0.620              1.897              2.614
 Vibration     7          0.634              1.853              2.222
 Vibration     8          0.645              1.819              2.004
 Vibration     9          0.662              1.765              1.741
 Vibration    10          0.665              1.757              1.705
 Vibration    11          0.670              1.742              1.647
 Vibration    12          0.719              1.598              1.218
 Vibration    13          0.726              1.577              1.171
 Vibration    14          0.752              1.508              1.029
 Vibration    15          0.770              1.459              0.945
 Vibration    16          0.818              1.338              0.765
 Vibration    17          0.862              1.234              0.640
 Vibration    18          0.905              1.141              0.545

 Optimization completed.
    -- Stationary point found.
 Normal termination of Gaussian 16 at Tue Jun  1 10:22:12 2021.
