 Gaussian 16, Revision A.03,
 Gaussian 16:  ES64L-G16RevA.03 25-Dec-2016

 -----------------------------
 # opt freq b3lyp/6-31g(2df,p)
 -----------------------------

 -------------------
 Title Card Required
 -------------------
 Symbolic Z-matrix:
 Charge =  0 Multiplicity = 1

 SCF Done:  E(RB3LYP) =  -344.087443683     A.U. after   15 cycles
 SCF Done:  E(RB3LYP) =  -344.089375931     A.U. after   12 cycles
 SCF Done:  E(RB3LYP) =  -344.088920223     A.U. after   12 cycles
 SCF Done:  E(RB3LYP) =  -344.088763924     A.U. after   12 cycles
 SCF Done:  E(RB3LYP) =  -344.088053172     A.U. after   12 cycles
 SCF Done:  E(RB3LYP) =  -344.089399645     A.U. after    9 cycles
 SCF Done:  E(RB3LYP) =  -344.089765444     A.U. after   11 cycles
 SCF Done:  E(RB3LYP) =  -344.089751781     A.U. after   12 cycles
 SCF Done:  E(RB3LYP) =  -344.089808090     A.U. after   11 cycles
 SCF Done:  E(RB3LYP) =  -344.089794164     A.U. after   10 cycles
 SCF Done:  E(RB3LYP) =  -344.092785634     A.U. after   13 cycles
 SCF Done:  E(RB3LYP) =  -344.092096891     A.U. after   14 cycles
 SCF Done:  E(RB3LYP) =  -344.091532765     A.U. after   14 cycles
 SCF Done:  E(RB3LYP) =  -344.093682752     A.U. after   10 cycles
 SCF Done:  E(RB3LYP) =  -344.093731246     A.U. after   12 cycles
 SCF Done:  E(RB3LYP) =  -344.093743310     A.U. after   10 cycles
 SCF Done:  E(RB3LYP) =  -344.093751406     A.U. after   10 cycles
 SCF Done:  E(RB3LYP) =  -344.093754214     A.U. after    9 cycles
 SCF Done:  E(RB3LYP) =  -344.093754565     A.U. after    8 cycles
 Optimization completed.
    -- Stationary point found.
 Normal termination of Gaussian 16 at Tue Jun  1 02:36:00 2021.

 ----------------------------------------------------------------------
 #N Geom=AllCheck Guess=TCheck SCRF=Check GenChk RB3LYP/6-31G(2df,p) Fr
 eq
 ----------------------------------------------------------------------

 Structure from the checkpoint file:  "CtCNdCCpNpCC.chk"
 -------------------
 Title Card Required
 -------------------
 Charge =  0 Multiplicity = 1

                         Standard orientation:
 ---------------------------------------------------------------------
 Center     Atomic      Atomic             Coordinates (Angstroms)
 Number     Number       Type             X           Y           Z
 ---------------------------------------------------------------------
      1          6           0        3.910960   -0.409971   -0.166221
      2          6           0        2.747987   -0.095202   -0.104575
      3          7           0        1.491158    0.352502   -0.098015
      4          6           0        0.543675   -0.294510    0.464978
      5          6           0       -0.878331    0.214178    0.445737
      6          7           0       -1.053554    1.544296   -0.124293
      7          6           0       -1.779837   -0.810888   -0.281230
      8          6           0       -3.271140   -0.509033   -0.123559
      9          1           0        4.931446   -0.694586   -0.215786
     10          1           0        0.721934   -1.253404    0.969562
     11          1           0       -1.213453    0.250814    1.494692
     12          1           0       -0.611475    1.562124   -1.041162
     13          1           0       -0.524708    2.216019    0.425695
     14          1           0       -1.555756   -1.816023    0.096657
     15          1           0       -1.504049   -0.813811   -1.344067
     16          1           0       -3.577237   -0.581180    0.926108
     17          1           0       -3.875706   -1.217726   -0.697442
     18          1           0       -3.494111    0.502744   -0.468897
 ---------------------------------------------------------------------

 SCF Done:  E(RB3LYP) =  -344.093754565     A.U. after    1 cycles

 The electronic state is 1-A.
 Alpha  occ. eigenvalues --  -14.35794 -14.31227 -10.24632 -10.22596 -10.20521
 Alpha  occ. eigenvalues --  -10.19199 -10.17321 -10.17222  -0.95584  -0.88936
 Alpha  occ. eigenvalues --   -0.77572  -0.74577  -0.69802  -0.62962  -0.58665
 Alpha  occ. eigenvalues --   -0.53923  -0.50699  -0.49192  -0.47299  -0.44551
 Alpha  occ. eigenvalues --   -0.41149  -0.40341  -0.37981  -0.36413  -0.34434
 Alpha  occ. eigenvalues --   -0.34011  -0.32742  -0.25116  -0.24850  -0.23685
 Alpha virt. eigenvalues --   -0.04393   0.06880   0.08937   0.10996   0.11855
 Alpha virt. eigenvalues --    0.12206   0.12767   0.13580   0.15786   0.16322
 Alpha virt. eigenvalues --    0.16860   0.17564   0.19979   0.21588   0.22525

 Mulliken charges:
               1
     1  C   -0.248116
     2  C    0.189503
     3  N   -0.285844
     4  C   -0.006875
     5  C   -0.037648
     6  N   -0.500919
     7  C   -0.164760
     8  C   -0.379836
     9  H    0.190279
    10  H    0.109194
    11  H    0.097773
    12  H    0.235042
    13  H    0.234437
    14  H    0.098321
    15  H    0.104693
    16  H    0.111359
    17  H    0.110837
    18  H    0.142558
 Sum of Mulliken charges =   0.00000

 Dipole moment (field-independent basis, Debye):
    X=             -0.4372    Y=             -1.1402    Z=              0.7811  Tot=              1.4496
 Quadrupole moment (field-independent basis, Debye-Ang):
   XX=            -49.3859   YY=            -48.4779   ZZ=            -47.2068
   XY=              0.3438   XZ=              0.1291   YZ=              0.1757

  Exact polarizability: 131.417  -2.455  62.935  -6.609  -2.157  55.881
 Approx polarizability: 185.955  -5.568  93.739 -15.979  -5.094  87.820

                      1                      2                      3
                      A                      A                      A
 Frequencies --     62.8840                91.4910               132.8284
 Red. masses --      2.9975                 2.3313                 3.0593
 Frc consts  --      0.0070                 0.0115                 0.0318
 IR Inten    --      5.7056                 0.9893                13.8510

                      4                      5                      6
                      A                      A                      A
 Frequencies --    149.9677               190.9566               220.0626
 Red. masses --      3.4217                 1.1214                 1.3486
 Frc consts  --      0.0453                 0.0241                 0.0385
 IR Inten    --      0.4641                27.4341                 1.6205

                      7                      8                      9
                      A                      A                      A
 Frequencies --    276.5206               280.4576               366.0005
 Red. masses --      2.3751                 4.0084                 3.2428
 Frc consts  --      0.1070                 0.1858                 0.2559
 IR Inten    --      0.6694                 8.1099                 1.1825

                     10                     11                     12
                      A                      A                      A
 Frequencies --    435.2203               508.7634               533.4678
 Red. masses --      2.4463                 1.5645                 5.5666
 Frc consts  --      0.2730                 0.2386                 0.9334
 IR Inten    --      2.5116                51.3476                 1.9676

                     13                     14                     15
                      A                      A                      A
 Frequencies --    575.8373               644.5382               691.5929
 Red. masses --      2.8449                 1.2454                 2.9034
 Frc consts  --      0.5558                 0.3048                 0.8182
 IR Inten    --      5.2976                34.7519                 7.9197

                     16                     17                     18
                      A                      A                      A
 Frequencies --    785.8060               841.2287               908.0593
 Red. masses --      1.3099                 2.2475                 2.3153
 Frc consts  --      0.4766                 0.9371                 1.1248
 IR Inten    --      2.2824                 1.1368               150.0205

                     19                     20                     21
                      A                      A                      A
 Frequencies --    959.5013               985.0202              1009.8342
 Red. masses --      1.6993                 1.6790                 1.8483
 Frc consts  --      0.9217                 0.9598                 1.1105
 IR Inten    --     30.7135                13.0710                21.8466

                     22                     23                     24
                      A                      A                      A
 Frequencies --   1049.8084              1069.8626              1103.4216
 Red. masses --      1.3134                 3.2701                 2.4277
 Frc consts  --      0.8529                 2.2053                 1.7415
 IR Inten    --      0.9682                 7.2547                32.4776

                     25                     26                     27
                      A                      A                      A
 Frequencies --   1174.0141              1245.6494              1283.3915
 Red. masses --      2.1082                 1.5891                 1.3308
 Frc consts  --      1.7120                 1.4527                 1.2915
 IR Inten    --      5.1894                 0.2076                 5.9829

                     28                     29                     30
                      A                      A                      A
 Frequencies --   1328.7856              1367.9635              1375.6641
 Red. masses --      1.2783                 1.4824                 1.3201
 Frc consts  --      1.3299                 1.6345                 1.4719
 IR Inten    --      0.7101                 1.5405                 3.3859

                     31                     32                     33
                      A                      A                      A
 Frequencies --   1399.0550              1411.2809              1482.8422
 Red. masses --      1.2785                 1.2777                 1.0746
 Frc consts  --      1.4744                 1.4993                 1.3922
 IR Inten    --     10.5379                 3.3867                 0.5683

                     34                     35                     36
                      A                      A                      A
 Frequencies --   1493.2126              1509.9827              1669.2672
 Red. masses --      1.0423                 1.0563                 1.0938
 Frc consts  --      1.3692                 1.4190                 1.7956
 IR Inten    --      5.7993                 3.9904                17.6172

                     37                     38                     39
                      A                      A                      A
 Frequencies --   1704.2659              2221.8947              2983.9060
 Red. masses --      8.5085                 6.3353                 1.0805
 Frc consts  --     14.5605                18.4275                 5.6682
 IR Inten    --     94.8078                24.5756                10.4790

                     40                     41                     42
                      A                      A                      A
 Frequencies --   3020.5923              3033.5770              3037.2282
 Red. masses --      1.0611                 1.0868                 1.0403
 Frc consts  --      5.7039                 5.8924                 5.6543
 IR Inten    --     21.0289                31.5792                29.7801

                     43                     44                     45
                      A                      A                      A
 Frequencies --   3058.2981              3101.6659              3133.0193
 Red. masses --      1.0987                 1.1005                 1.1003
 Frc consts  --      6.0546                 6.2376                 6.3637
 IR Inten    --     35.2359                36.1718                16.6458

                     46                     47                     48
                      A                      A                      A
 Frequencies --   3482.5301              3514.4336              3551.7218
 Red. masses --      1.0505                 1.1539                 1.0897
 Frc consts  --      7.5064                 8.3974                 8.0993
 IR Inten    --      0.4627                98.7093                 1.6792

 - Thermochemistry -
 -------------------
 Temperature   298.150 Kelvin.  Pressure   1.00000 Atm.
 Atom     1 has atomic number  6 and mass  12.00000

 Molecular mass:   110.08440 amu.
 Principal axes and moments of inertia in atomic units:
                           1         2         3
     Eigenvalues --   286.687712093.127202273.77776
           X            0.99999   0.00496   0.00197
           Y           -0.00495   0.99996  -0.00739
           Z           -0.00200   0.00738   0.99997
 This molecule is an asymmetric top.
 Rotational symmetry number  1.
 Rotational temperatures (Kelvin)      0.30212     0.04138     0.03809
 Rotational constants (GHZ):           6.29515     0.86222     0.79372
 Zero-point vibrational energy     397503.4 (Joules/Mol)
                                   95.00558 (Kcal/Mol)
 Warning -- explicit consideration of  13 degrees of freedom as
           vibrations may cause significant error
 Vibrational temperatures:     90.48   131.64   191.11   215.77   274.74
          (Kelvin)            316.62   397.85   403.52   526.59   626.18
                              732.00   767.54   828.50   927.35   995.05
                             1130.60  1210.34  1306.49  1380.51  1417.22
                             1452.93  1510.44  1539.29  1587.58  1689.14
                             1792.21  1846.51  1911.83  1968.19  1979.27
                             2012.93  2030.52  2133.48  2148.40  2172.53
                             2401.70  2452.06  3196.81  4293.18  4345.96
                             4364.64  4369.89  4400.21  4462.61  4507.72
                             5010.58  5056.49  5110.14

 Zero-point correction=                           0.151401 (Hartree/Particle)
 Thermal correction to Energy=                    0.161084
 Thermal correction to Enthalpy=                  0.162029
 Thermal correction to Gibbs Free Energy=         0.116807
 Sum of electronic and zero-point Energies=           -343.942354
 Sum of electronic and thermal Energies=              -343.932670
 Sum of electronic and thermal Enthalpies=            -343.931726
 Sum of electronic and thermal Free Energies=         -343.976948

                     E (Thermal)             CV                S
                      KCal/Mol        Cal/Mol-Kelvin    Cal/Mol-Kelvin
 Total                  101.082             34.297             95.177
 Electronic               0.000              0.000              0.000
 Translational            0.889              2.981             40.004
 Rotational               0.889              2.981             28.702
 Vibrational             99.305             28.336             26.471
 Vibration     1          0.597              1.972              4.365
 Vibration     2          0.602              1.955              3.628
 Vibration     3          0.613              1.921              2.905
 Vibration     4          0.618              1.903              2.673
 Vibration     5          0.634              1.852              2.219
 Vibration     6          0.647              1.811              1.959
 Vibration     7          0.678              1.717              1.555
 Vibration     8          0.680              1.710              1.531
 Vibration     9          0.739              1.542              1.097
 Vibration    10          0.796              1.393              0.842
 Vibration    11          0.864              1.231              0.637
 Vibration    12          0.888              1.176              0.580
 Vibration    13          0.932              1.084              0.493

 Optimization completed.
    -- Stationary point found.
 Normal termination of Gaussian 16 at Tue Jun  1 02:56:28 2021.
