 Gaussian 16, Revision A.03,
 Gaussian 16:  ES64L-G16RevA.03 25-Dec-2016

 -----------------------------
 # opt freq b3lyp/6-31g(2df,p)
 -----------------------------

 -------------------
 Title Card Required
 -------------------
 Symbolic Z-matrix:
 Charge =  0 Multiplicity = 1

 SCF Done:  E(RB3LYP) =  -492.546450082     A.U. after   14 cycles
 SCF Done:  E(RB3LYP) =  -492.561439638     A.U. after   12 cycles
 SCF Done:  E(RB3LYP) =  -492.567140396     A.U. after   12 cycles
 SCF Done:  E(RB3LYP) =  -492.569796468     A.U. after   13 cycles
 SCF Done:  E(RB3LYP) =  -492.570846591     A.U. after   12 cycles
 SCF Done:  E(RB3LYP) =  -492.571230511     A.U. after   12 cycles
 SCF Done:  E(RB3LYP) =  -492.571318919     A.U. after   10 cycles
 SCF Done:  E(RB3LYP) =  -492.571335457     A.U. after    9 cycles
 SCF Done:  E(RB3LYP) =  -492.571340270     A.U. after    8 cycles
 SCF Done:  E(RB3LYP) =  -492.571342233     A.U. after    8 cycles
 SCF Done:  E(RB3LYP) =  -492.571343048     A.U. after    8 cycles
 SCF Done:  E(RB3LYP) =  -492.571343127     A.U. after    7 cycles
 Optimization completed.
    -- Stationary point found.
 Normal termination of Gaussian 16 at Mon May 31 13:15:56 2021.

 ----------------------------------------------------------------------
 #N Geom=AllCheck Guess=TCheck SCRF=Check GenChk RB3LYP/6-31G(2df,p) Fr
 eq
 ----------------------------------------------------------------------

 Structure from the checkpoint file:  "FNCCN1CdNNN1.chk"
 -------------------
 Title Card Required
 -------------------
 Charge =  0 Multiplicity = 1

                         Standard orientation:
 ---------------------------------------------------------------------
 Center     Atomic      Atomic             Coordinates (Angstroms)
 Number     Number       Type             X           Y           Z
 ---------------------------------------------------------------------
      1          9           0        3.374098    0.895170   -0.105797
      2          7           0        2.634193   -0.323539   -0.084456
      3          6           0        1.230206    0.078875   -0.014428
      4          6           0        0.367112   -1.186900    0.092106
      5          7           0       -1.078214   -0.937121    0.117713
      6          6           0       -1.651358   -0.382124   -1.039773
      7          7           0       -2.261927    0.727437   -0.893871
      8          7           0       -2.155608    1.070919    0.492941
      9          7           0       -1.531754   -0.055250    1.173921
     10          1           0        2.903690   -0.696370    0.828493
     11          1           0        1.000068    0.612118   -0.942158
     12          1           0        1.028664    0.746780    0.832978
     13          1           0        0.618716   -1.745405    0.999426
     14          1           0        0.567417   -1.845303   -0.759545
     15          1           0       -1.561515   -0.889527   -1.991297
     16          1           0       -1.523315    1.872805    0.530109
     17          1           0       -2.323194   -0.547858    1.583004
 ---------------------------------------------------------------------

 SCF Done:  E(RB3LYP) =  -492.571343127     A.U. after    1 cycles

 The electronic state is 1-A.
 Alpha  occ. eigenvalues --  -24.68553 -14.40601 -14.38777 -14.38429 -14.38407
 Alpha  occ. eigenvalues --  -14.35464 -10.25419 -10.23947 -10.22624  -1.19263
 Alpha  occ. eigenvalues --   -1.07253  -0.93089  -0.88255  -0.87005  -0.76241
 Alpha  occ. eigenvalues --   -0.69316  -0.64221  -0.61151  -0.54118  -0.53528
 Alpha  occ. eigenvalues --   -0.51589  -0.49663  -0.47658  -0.46064  -0.44395
 Alpha  occ. eigenvalues --   -0.42388  -0.40955  -0.38615  -0.37454  -0.35959
 Alpha  occ. eigenvalues --   -0.32129  -0.29777  -0.28485  -0.26164  -0.21678
 Alpha virt. eigenvalues --   -0.00224   0.04551   0.07547   0.07750   0.09415
 Alpha virt. eigenvalues --    0.10544   0.11248   0.13196   0.15294   0.15441
 Alpha virt. eigenvalues --    0.17684   0.17957   0.18906   0.19733   0.23873

 Mulliken charges:
               1
     1  F   -0.201866
     2  N   -0.165043
     3  C   -0.134303
     4  C   -0.173164
     5  N   -0.109631
     6  C    0.078729
     7  N   -0.211138
     8  N   -0.237265
     9  N   -0.260726
    10  H    0.249097
    11  H    0.131549
    12  H    0.120413
    13  H    0.119758
    14  H    0.134111
    15  H    0.147611
    16  H    0.251583
    17  H    0.260285
 Sum of Mulliken charges =  -0.00000

 Dipole moment (field-independent basis, Debye):
    X=              0.2965    Y=             -2.1187    Z=              1.1405  Tot=              2.4244
 Quadrupole moment (field-independent basis, Debye-Ang):
   XX=            -64.3050   YY=            -50.8844   ZZ=            -50.5553
   XY=              1.3624   XZ=              1.9814   YZ=              0.8150

  Exact polarizability:  74.962  -6.157  65.782   0.725   1.234  61.482
 Approx polarizability:  99.063 -13.014 112.254   0.080   1.679  97.340

                      1                      2                      3
                      A                      A                      A
 Frequencies --     65.9739                70.2700                81.8128
 Red. masses --      5.8423                 3.4427                 3.6966
 Frc consts  --      0.0150                 0.0100                 0.0146
 IR Inten    --      1.6831                 3.2927                 2.5235

                      4                      5                      6
                      A                      A                      A
 Frequencies --    138.0442               194.1523               273.2355
 Red. masses --      2.8390                 5.0386                 3.3368
 Frc consts  --      0.0319                 0.1119                 0.1468
 IR Inten    --      1.5209                 5.2711                15.3421

                      7                      8                      9
                      A                      A                      A
 Frequencies --    335.3607               414.0904               465.8859
 Red. masses --      3.7565                 4.1396                 3.6251
 Frc consts  --      0.2489                 0.4182                 0.4636
 IR Inten    --      3.5045                30.8241                17.8111

                     10                     11                     12
                      A                      A                      A
 Frequencies --    613.6707               689.5220               797.2427
 Red. masses --      3.1300                 5.0667                 1.2409
 Frc consts  --      0.6945                 1.4193                 0.4647
 IR Inten    --      7.5014                25.0961                 6.3513

                     13                     14                     15
                      A                      A                      A
 Frequencies --    816.0056               868.0489               877.6571
 Red. masses --      4.3142                 5.7539                 3.0894
 Frc consts  --      1.6925                 2.5545                 1.4021
 IR Inten    --     66.9365                 8.4714                54.3623

                     16                     17                     18
                      A                      A                      A
 Frequencies --    909.5510               915.8938               929.5364
 Red. masses --      3.3195                 2.7017                 2.7162
 Frc consts  --      1.6180                 1.3353                 1.3827
 IR Inten    --     14.3169                28.7453                35.4122

                     19                     20                     21
                      A                      A                      A
 Frequencies --   1000.7480              1023.4770              1038.6812
 Red. masses --      1.9065                 3.2658                 2.5480
 Frc consts  --      1.1249                 2.0156                 1.6196
 IR Inten    --     25.3038                11.9169                17.6599

                     22                     23                     24
                      A                      A                      A
 Frequencies --   1075.9145              1117.8936              1127.7436
 Red. masses --      1.7447                 3.2524                 2.3814
 Frc consts  --      1.1900                 2.3947                 1.7845
 IR Inten    --     36.5328                 1.4777                18.1600

                     25                     26                     27
                      A                      A                      A
 Frequencies --   1226.6784              1250.9303              1287.9250
 Red. masses --      1.8865                 1.5281                 1.2582
 Frc consts  --      1.6725                 1.4089                 1.2296
 IR Inten    --     40.3071                64.6785                 5.8285

                     28                     29                     30
                      A                      A                      A
 Frequencies --   1301.1046              1313.4259              1345.2778
 Red. masses --      1.5122                 1.2658                 1.3693
 Frc consts  --      1.5083                 1.2866                 1.4600
 IR Inten    --      4.0851                 2.5561                15.2624

                     31                     32                     33
                      A                      A                      A
 Frequencies --   1400.3907              1408.8479              1456.5213
 Red. masses --      1.2768                 1.2114                 1.1134
 Frc consts  --      1.4752                 1.4166                 1.3917
 IR Inten    --      1.5942                13.6479                 9.1163

                     34                     35                     36
                      A                      A                      A
 Frequencies --   1481.9353              1519.5250              1527.4029
 Red. masses --      1.0839                 1.0628                 1.0895
 Frc consts  --      1.4025                 1.4458                 1.4975
 IR Inten    --      3.8790                 2.8009                 2.5320

                     37                     38                     39
                      A                      A                      A
 Frequencies --   1669.7261              3022.8581              3049.2214
 Red. masses --      7.8223                 1.0613                 1.0599
 Frc consts  --     12.8492                 5.7136                 5.8061
 IR Inten    --     41.7981                17.0062                30.3075

                     40                     41                     42
                      A                      A                      A
 Frequencies --   3080.4922              3101.9699              3235.0488
 Red. masses --      1.0992                 1.1061                 1.0964
 Frc consts  --      6.1458                 6.2710                 6.7605
 IR Inten    --      1.2653                23.8299                 1.1311

                     43                     44                     45
                      A                      A                      A
 Frequencies --   3417.1459              3428.5281              3457.0487
 Red. masses --      1.0761                 1.0758                 1.0770
 Frc consts  --      7.4031                 7.4509                 7.5835
 IR Inten    --      2.5016                 0.8259                 2.0090

 - Thermochemistry -
 -------------------
 Temperature   298.150 Kelvin.  Pressure   1.00000 Atm.
 Atom     1 has atomic number  9 and mass  18.99840

 Molecular mass:   133.07637 amu.
 Principal axes and moments of inertia in atomic units:
                           1         2         3
     Eigenvalues --   506.298362254.895732346.28617
           X            0.99992  -0.01211   0.00236
           Y            0.01200   0.99906   0.04158
           Z           -0.00286  -0.04155   0.99913
 This molecule is an asymmetric top.
 Rotational symmetry number  1.
 Warning -- assumption of classical behavior for rotation
           may cause significant error
 Rotational temperatures (Kelvin)      0.17107     0.03841     0.03692
 Rotational constants (GHZ):           3.56458     0.80037     0.76919
 Zero-point vibrational energy     357817.5 (Joules/Mol)
                                   85.52044 (Kcal/Mol)
 Warning -- explicit consideration of  10 degrees of freedom as
           vibrations may cause significant error
 Vibrational temperatures:     94.92   101.10   117.71   198.61   279.34
          (Kelvin)            393.12   482.51   595.78   670.31   882.94
                              992.07  1147.05  1174.05  1248.93  1262.75
                             1308.64  1317.77  1337.40  1439.85  1472.56
                             1494.43  1548.00  1608.40  1622.57  1764.92
                             1799.81  1853.04  1872.00  1889.73  1935.55
                             2014.85  2027.02  2095.61  2132.17  2186.26
                             2197.59  2402.36  4349.22  4387.15  4432.14
                             4463.04  4654.51  4916.51  4932.89  4973.92

 Zero-point correction=                           0.136285 (Hartree/Particle)
 Thermal correction to Energy=                    0.145073
 Thermal correction to Enthalpy=                  0.146018
 Thermal correction to Gibbs Free Energy=         0.101236
 Sum of electronic and zero-point Energies=           -492.435058
 Sum of electronic and thermal Energies=              -492.426270
 Sum of electronic and thermal Enthalpies=            -492.425325
 Sum of electronic and thermal Free Energies=         -492.470107

                     E (Thermal)             CV                S
                      KCal/Mol        Cal/Mol-Kelvin    Cal/Mol-Kelvin
 Total                   91.035             30.730             94.250
 Electronic               0.000              0.000              0.000
 Translational            0.889              2.981             40.570
 Rotational               0.889              2.981             29.373
 Vibrational             89.258             24.768             24.308
 Vibration     1          0.597              1.971              4.270
 Vibration     2          0.598              1.968              4.146
 Vibration     3          0.600              1.962              3.847
 Vibration     4          0.614              1.915              2.831
 Vibration     5          0.635              1.848              2.188
 Vibration     6          0.676              1.723              1.576
 Vibration     7          0.716              1.605              1.234
 Vibration     8          0.778              1.440              0.912
 Vibration     9          0.823              1.326              0.749
 Vibration    10          0.973              1.003              0.427

 Optimization completed.
    -- Stationary point found.
 Normal termination of Gaussian 16 at Mon May 31 13:41:00 2021.
