 Gaussian 16, Revision A.03,
 Gaussian 16:  ES64L-G16RevA.03 25-Dec-2016

 -----------------------------
 # opt freq b3lyp/6-31g(2df,p)
 -----------------------------

 -------------------
 Title Card Required
 -------------------
 Symbolic Z-matrix:
 Charge =  0 Multiplicity = 1

 SCF Done:  E(RB3LYP) =  -472.024664511     A.U. after   13 cycles
 SCF Done:  E(RB3LYP) =  -472.042297143     A.U. after   12 cycles
 SCF Done:  E(RB3LYP) =  -472.046831578     A.U. after   11 cycles
 SCF Done:  E(RB3LYP) =  -472.047840111     A.U. after   12 cycles
 SCF Done:  E(RB3LYP) =  -472.048067411     A.U. after   11 cycles
 SCF Done:  E(RB3LYP) =  -472.048124782     A.U. after   10 cycles
 SCF Done:  E(RB3LYP) =  -472.048179313     A.U. after    9 cycles
 SCF Done:  E(RB3LYP) =  -472.048186523     A.U. after    9 cycles
 SCF Done:  E(RB3LYP) =  -472.048187913     A.U. after    7 cycles
 SCF Done:  E(RB3LYP) =  -472.048188148     A.U. after    6 cycles
 Optimization completed.
    -- Stationary point found.
 Normal termination of Gaussian 16 at Mon May 31 18:08:49 2021.

 ----------------------------------------------------------------------
 #N Geom=AllCheck Guess=TCheck SCRF=Check GenChk RB3LYP/6-31G(2df,p) Fr
 eq
 ----------------------------------------------------------------------

 Structure from the checkpoint file:  "NC1CdNNNCpNpCC1.chk"
 -------------------
 Title Card Required
 -------------------
 Charge =  0 Multiplicity = 1

                         Standard orientation:
 ---------------------------------------------------------------------
 Center     Atomic      Atomic             Coordinates (Angstroms)
 Number     Number       Type             X           Y           Z
 ---------------------------------------------------------------------
      1          7           0        2.028380   -1.391699   -0.785742
      2          6           0        1.772806   -0.305386    0.179731
      3          6           0        1.479389    1.018058   -0.528405
      4          7           0        0.596457    1.926991   -0.394972
      5          7           0       -0.408380    1.646824    0.624210
      6          7           0       -1.539067    0.989927    0.063026
      7          6           0       -1.275044   -0.394926   -0.317455
      8          7           0       -2.570048   -0.907423   -0.757882
      9          6           0       -0.608595   -1.204652    0.808176
     10          6           0        0.801927   -0.778213    1.273447
     11          1           0        2.795127   -1.140630   -1.404089
     12          1           0        1.218011   -1.523037   -1.384801
     13          1           0        2.737636   -0.129692    0.679164
     14          1           0        2.211378    1.232653   -1.315720
     15          1           0       -0.753082    2.566278    0.880278
     16          1           0       -1.856131    1.474279   -0.780621
     17          1           0       -0.622726   -0.445120   -1.208733
     18          1           0       -3.191180   -0.970353    0.044969
     19          1           0       -2.462865   -1.845642   -1.131070
     20          1           0       -0.565320   -2.238947    0.444517
     21          1           0       -1.281118   -1.207178    1.674478
     22          1           0        1.276295   -1.644601    1.748909
     23          1           0        0.719682    0.010361    2.019281
 ---------------------------------------------------------------------

 SCF Done:  E(RB3LYP) =  -472.048188148     A.U. after    1 cycles

 The electronic state is 1-A.
 Alpha  occ. eigenvalues --  -14.36088 -14.34046 -14.34035 -14.31869 -14.31100
 Alpha  occ. eigenvalues --  -10.23553 -10.22349 -10.22226 -10.17782 -10.17480
 Alpha  occ. eigenvalues --   -1.00181  -0.91031  -0.89414  -0.85731  -0.77460
 Alpha  occ. eigenvalues --   -0.74515  -0.69716  -0.61946  -0.59497  -0.53575
 Alpha  occ. eigenvalues --   -0.52502  -0.51765  -0.49324  -0.48658  -0.44714
 Alpha  occ. eigenvalues --   -0.42733  -0.42413  -0.41562  -0.40254  -0.38183
 Alpha  occ. eigenvalues --   -0.35671  -0.34745  -0.33479  -0.32616  -0.29603
 Alpha  occ. eigenvalues --   -0.26070  -0.24609  -0.23892  -0.20363
 Alpha virt. eigenvalues --   -0.00479   0.06497   0.08485   0.10371   0.10681
 Alpha virt. eigenvalues --    0.12661   0.13279   0.14075   0.15392   0.16367
 Alpha virt. eigenvalues --    0.16716   0.17354   0.19188   0.20369   0.21409

 Mulliken charges:
               1
     1  N   -0.512607
     2  C   -0.032280
     3  C    0.055645
     4  N   -0.194175
     5  N   -0.278391
     6  N   -0.246466
     7  C    0.067621
     8  N   -0.511877
     9  C   -0.186040
    10  C   -0.193971
    11  H    0.228409
    12  H    0.228485
    13  H    0.101221
    14  H    0.094734
    15  H    0.244024
    16  H    0.218548
    17  H    0.057093
    18  H    0.227909
    19  H    0.223852
    20  H    0.093232
    21  H    0.098224
    22  H    0.091955
    23  H    0.124856
 Sum of Mulliken charges =  -0.00000

 Dipole moment (field-independent basis, Debye):
    X=              0.5284    Y=             -1.0462    Z=             -0.4334  Tot=              1.2497
 Quadrupole moment (field-independent basis, Debye-Ang):
   XX=            -58.9547   YY=            -62.1151   ZZ=            -59.9011
   XY=              2.8861   XZ=             -3.3743   YZ=              2.5473

  Exact polarizability: 102.220  -2.626  88.365  -3.959   1.435  75.372
 Approx polarizability: 145.938 -10.359 133.334  -7.927   6.438 116.468

                      1                      2                      3
                      A                      A                      A
 Frequencies --    100.2940               136.1709               191.9048
 Red. masses --      3.7338                 3.2991                 2.3982
 Frc consts  --      0.0221                 0.0360                 0.0520
 IR Inten    --      0.3438                 2.8167                 3.0301

                      4                      5                      6
                      A                      A                      A
 Frequencies --    234.7519               260.1925               266.6322
 Red. masses --      1.2585                 2.0334                 2.9739
 Frc consts  --      0.0409                 0.0811                 0.1246
 IR Inten    --     28.3967                 3.0760                17.7486

                      7                      8                      9
                      A                      A                      A
 Frequencies --    293.5557               307.1215               348.3615
 Red. masses --      1.8763                 3.3498                 2.6789
 Frc consts  --      0.0953                 0.1862                 0.1915
 IR Inten    --     30.5532                 3.1068                 9.8297

                     10                     11                     12
                      A                      A                      A
 Frequencies --    381.5924               413.7761               479.1544
 Red. masses --      2.9099                 2.3695                 2.2417
 Frc consts  --      0.2496                 0.2390                 0.3032
 IR Inten    --      6.8518                 6.0455                 4.0791

                     13                     14                     15
                      A                      A                      A
 Frequencies --    545.5385               585.2413               641.4058
 Red. masses --      3.3916                 3.4960                 4.9486
 Frc consts  --      0.5947                 0.7055                 1.1995
 IR Inten    --      2.6602                11.2728                 7.0181

                     16                     17                     18
                      A                      A                      A
 Frequencies --    728.6527               758.8240               778.3603
 Red. masses --      2.0044                 2.9172                 2.7136
 Frc consts  --      0.6270                 0.9897                 0.9686
 IR Inten    --      2.0460                 7.0142                38.3792

                     19                     20                     21
                      A                      A                      A
 Frequencies --    834.7146               858.2214               876.1594
 Red. masses --      2.7257                 2.2028                 1.6059
 Frc consts  --      1.1189                 0.9559                 0.7263
 IR Inten    --     34.7701                50.0716               119.3175

                     22                     23                     24
                      A                      A                      A
 Frequencies --    912.2091               927.0351               962.6650
 Red. masses --      1.7726                 1.7307                 2.0596
 Frc consts  --      0.8691                 0.8763                 1.1246
 IR Inten    --    149.4480                49.1377                 6.8975

                     25                     26                     27
                      A                      A                      A
 Frequencies --    979.1173              1004.3339              1041.4061
 Red. masses --      1.8635                 2.1283                 2.1129
 Frc consts  --      1.0526                 1.2648                 1.3501
 IR Inten    --     15.8278                44.5329                 8.3526

                     28                     29                     30
                      A                      A                      A
 Frequencies --   1065.0335              1114.4680              1131.2550
 Red. masses --      2.1300                 1.4043                 1.8041
 Frc consts  --      1.4235                 1.0277                 1.3603
 IR Inten    --     14.7218                 6.8918                 5.1148

                     31                     32                     33
                      A                      A                      A
 Frequencies --   1157.9444              1163.8631              1204.1585
 Red. masses --      2.4662                 1.6951                 1.6833
 Frc consts  --      1.9483                 1.3528                 1.4381
 IR Inten    --      8.9568                19.1235                 9.0702

                     34                     35                     36
                      A                      A                      A
 Frequencies --   1235.1843              1264.6484              1285.2527
 Red. masses --      1.5566                 1.3067                 1.4624
 Frc consts  --      1.3992                 1.2313                 1.4233
 IR Inten    --      4.6929                 7.5150                 6.0182

                     37                     38                     39
                      A                      A                      A
 Frequencies --   1345.0481              1365.0635              1371.0819
 Red. masses --      1.4576                 1.2833                 1.1810
 Frc consts  --      1.5537                 1.4090                 1.3081
 IR Inten    --      3.0139                 1.2570                 4.7873

                     40                     41                     42
                      A                      A                      A
 Frequencies --   1387.2432              1404.0906              1419.1413
 Red. masses --      1.3455                 1.1978                 1.4182
 Frc consts  --      1.5256                 1.3913                 1.6828
 IR Inten    --      2.1827                 4.7507                13.7197

                     43                     44                     45
                      A                      A                      A
 Frequencies --   1424.7985              1462.2779              1470.1696
 Red. masses --      1.2719                 1.1373                 1.1294
 Frc consts  --      1.5213                 1.4328                 1.4383
 IR Inten    --      4.2144                 0.5466                 8.5171

                     46                     47                     48
                      A                      A                      A
 Frequencies --   1483.1304              1523.8302              1642.3808
 Red. masses --      1.1036                 1.2466                 1.1042
 Frc consts  --      1.4303                 1.7055                 1.7549
 IR Inten    --      8.5585                11.6932                24.0308

                     49                     50                     51
                      A                      A                      A
 Frequencies --   1658.4492              1712.2397              2920.4598
 Red. masses --      1.0921                 6.9679                 1.0797
 Frc consts  --      1.7698                12.0359                 5.4256
 IR Inten    --     25.6013                33.3506                62.9633

                     52                     53                     54
                      A                      A                      A
 Frequencies --   2990.4726              3020.9235              3041.5022
 Red. masses --      1.0818                 1.0611                 1.0707
 Frc consts  --      5.7001                 5.7052                 5.8358
 IR Inten    --     17.5946                25.5381                52.8959

                     55                     56                     57
                      A                      A                      A
 Frequencies --   3061.3381              3063.3957              3142.1679
 Red. masses --      1.0863                 1.1022                 1.0920
 Frc consts  --      5.9980                 6.0940                 6.3524
 IR Inten    --     37.2830                26.0964                11.0668

                     58                     59                     60
                      A                      A                      A
 Frequencies --   3394.8272              3483.3428              3484.5823
 Red. masses --      1.0734                 1.0488                 1.0491
 Frc consts  --      7.2889                 7.4981                 7.5051
 IR Inten    --      8.5852                 0.3464                 0.1174

                     61                     62                     63
                      A                      A                      A
 Frequencies --   3516.0769              3562.0209              3573.3521
 Red. masses --      1.0756                 1.0922                 1.0921
 Frc consts  --      7.8348                 8.1647                 8.2159
 IR Inten    --      3.5700                 0.4672                 0.6844

 - Thermochemistry -
 -------------------
 Temperature   298.150 Kelvin.  Pressure   1.00000 Atm.
 Atom     1 has atomic number  7 and mass  14.00307

 Molecular mass:   143.11710 amu.
 Principal axes and moments of inertia in atomic units:
                           1         2         3
     Eigenvalues --  1025.576611464.811141939.52358
           X            0.99993   0.01042  -0.00462
           Y           -0.01043   0.99994  -0.00153
           Z            0.00461   0.00158   0.99999
 This molecule is an asymmetric top.
 Rotational symmetry number  1.
 Warning -- assumption of classical behavior for rotation
           may cause significant error
 Rotational temperatures (Kelvin)      0.08445     0.05913     0.04466
 Rotational constants (GHZ):           1.75973     1.23206     0.93051
 Zero-point vibrational energy     534686.5 (Joules/Mol)
                                  127.79315 (Kcal/Mol)
 Warning -- explicit consideration of  14 degrees of freedom as
           vibrations may cause significant error
 Vibrational temperatures:    144.30   195.92   276.11   337.76   374.36
          (Kelvin)            383.62   422.36   441.88   501.21   549.03
                              595.33   689.40   784.91   842.03   922.84
                             1048.37  1091.78  1119.89  1200.97  1234.79
                             1260.60  1312.47  1333.80  1385.06  1408.73
                             1445.01  1498.35  1532.35  1603.47  1627.62
                             1666.02  1674.54  1732.52  1777.15  1819.55
                             1849.19  1935.22  1964.02  1972.68  1995.93
                             2020.17  2041.83  2049.97  2103.89  2115.25
                             2133.89  2192.45  2363.02  2386.14  2463.53
                             4201.89  4302.62  4346.44  4376.04  4404.58
                             4407.54  4520.88  4884.40  5011.75  5013.54
                             5058.85  5124.95  5141.26

 Zero-point correction=                           0.203651 (Hartree/Particle)
 Thermal correction to Energy=                    0.213441
 Thermal correction to Enthalpy=                  0.214385
 Thermal correction to Gibbs Free Energy=         0.169506
 Sum of electronic and zero-point Energies=           -471.844537
 Sum of electronic and thermal Energies=              -471.834747
 Sum of electronic and thermal Enthalpies=            -471.833803
 Sum of electronic and thermal Free Energies=         -471.878683

                     E (Thermal)             CV                S
                      KCal/Mol        Cal/Mol-Kelvin    Cal/Mol-Kelvin
 Total                  133.936             38.841             94.457
 Electronic               0.000              0.000              0.000
 Translational            0.889              2.981             40.787
 Rotational               0.889              2.981             29.456
 Vibrational            132.159             32.879             24.215
 Vibration     1          0.604              1.949              3.449
 Vibration     2          0.614              1.917              2.857
 Vibration     3          0.634              1.851              2.209
 Vibration     4          0.655              1.788              1.842
 Vibration     5          0.668              1.745              1.660
 Vibration     6          0.672              1.734              1.618
 Vibration     7          0.688              1.686              1.453
 Vibration     8          0.697              1.660              1.378
 Vibration     9          0.726              1.579              1.174
 Vibration    10          0.751              1.509              1.033
 Vibration    11          0.777              1.440              0.913
 Vibration    12          0.836              1.296              0.712
 Vibration    13          0.901              1.149              0.553
 Vibration    14          0.942              1.063              0.476

                           ! Non-Optimized Parameters !
 Normal termination of Gaussian 16 at Mon May 31 19:01:23 2021.
