 Gaussian 16, Revision A.03,
 Gaussian 16:  ES64L-G16RevA.03 25-Dec-2016

 -----------------------------
 # opt freq b3lyp/6-31g(2df,p)
 -----------------------------

 -------------------
 Title Card Required
 -------------------
 Symbolic Z-matrix:
 Charge =  0 Multiplicity = 1

 SCF Done:  E(RB3LYP) =  -393.435651252     A.U. after   13 cycles
 SCF Done:  E(RB3LYP) =  -393.450426055     A.U. after   12 cycles
 SCF Done:  E(RB3LYP) =  -393.458474890     A.U. after   11 cycles
 SCF Done:  E(RB3LYP) =  -393.467102190     A.U. after   12 cycles
 SCF Done:  E(RB3LYP) =  -393.472949029     A.U. after   12 cycles
 SCF Done:  E(RB3LYP) =  -393.477606776     A.U. after   12 cycles
 SCF Done:  E(RB3LYP) =  -393.479230840     A.U. after   11 cycles
 SCF Done:  E(RB3LYP) =  -393.480833611     A.U. after   12 cycles
 SCF Done:  E(RB3LYP) =  -393.481085578     A.U. after   11 cycles
 SCF Done:  E(RB3LYP) =  -393.481213419     A.U. after   10 cycles
 SCF Done:  E(RB3LYP) =  -393.481258257     A.U. after    9 cycles
 SCF Done:  E(RB3LYP) =  -393.481297622     A.U. after   10 cycles
 SCF Done:  E(RB3LYP) =  -393.481330865     A.U. after   10 cycles
 SCF Done:  E(RB3LYP) =  -393.481348054     A.U. after    9 cycles
 SCF Done:  E(RB3LYP) =  -393.481351769     A.U. after    8 cycles
 SCF Done:  E(RB3LYP) =  -393.481351876     A.U. after    6 cycles
 Optimization completed.
    -- Stationary point found.
 Normal termination of Gaussian 16 at Tue Jun  1 00:52:16 2021.

 ----------------------------------------------------------------------
 #N Geom=AllCheck Guess=TCheck SCRF=Check GenChk RB3LYP/6-31G(2df,p) Fr
 eq
 ----------------------------------------------------------------------

 Structure from the checkpoint file:  "NC1pNpCNNdCN1.chk"
 -------------------
 Title Card Required
 -------------------
 Charge =  0 Multiplicity = 1

                         Standard orientation:
 ---------------------------------------------------------------------
 Center     Atomic      Atomic             Coordinates (Angstroms)
 Number     Number       Type             X           Y           Z
 ---------------------------------------------------------------------
      1          7           0        2.075762    0.105256   -0.755100
      2          6           0        0.836802    0.006455   -0.005622
      3          7           0        1.218769   -0.257654    1.378075
      4          6           0       -0.055001   -1.082947   -0.636723
      5          7           0       -1.314611   -1.100195    0.096549
      6          7           0       -2.060314    0.093223    0.010054
      7          6           0       -1.350053    1.157622   -0.005382
      8          7           0        0.033106    1.230063   -0.064546
      9          1           0        1.886028    0.473870   -1.681737
     10          1           0        2.692482    0.762475   -0.284853
     11          1           0        1.856323   -1.050490    1.388764
     12          1           0        0.384173   -0.537358    1.888178
     13          1           0        0.440107   -2.051462   -0.533299
     14          1           0       -0.189296   -0.870130   -1.711338
     15          1           0       -1.918785   -1.852369   -0.206938
     16          1           0       -1.868814    2.111753   -0.007012
     17          1           0        0.458311    2.032087    0.379384
 ---------------------------------------------------------------------

 SCF Done:  E(RB3LYP) =  -393.481351876     A.U. after    1 cycles

 The electronic state is 1-A.
 Alpha  occ. eigenvalues --  -14.34388 -14.33664 -14.32186 -14.31646 -14.31001
 Alpha  occ. eigenvalues --  -10.27430 -10.23015 -10.20829  -0.99757  -0.94083
 Alpha  occ. eigenvalues --   -0.87993  -0.84169  -0.79970  -0.69281  -0.63363
 Alpha  occ. eigenvalues --   -0.54840  -0.53335  -0.51430  -0.49918  -0.47440
 Alpha  occ. eigenvalues --   -0.45219  -0.43713  -0.41136  -0.40485  -0.36975
 Alpha  occ. eigenvalues --   -0.36263  -0.29102  -0.26133  -0.25623  -0.25190
 Alpha  occ. eigenvalues --   -0.19010
 Alpha virt. eigenvalues --    0.04215   0.07362   0.09745   0.10800   0.12497
 Alpha virt. eigenvalues --    0.14704   0.14994   0.16232   0.16876   0.18478
 Alpha virt. eigenvalues --    0.19658   0.21312   0.23566   0.26430   0.26509

 Mulliken charges:
               1
     1  N   -0.533691
     2  C    0.249198
     3  N   -0.516683
     4  C   -0.164479
     5  N   -0.283632
     6  N   -0.236163
     7  C    0.077684
     8  N   -0.309050
     9  H    0.230263
    10  H    0.228467
    11  H    0.230058
    12  H    0.241714
    13  H    0.109388
    14  H    0.089545
    15  H    0.241533
    16  H    0.114268
    17  H    0.231581
 Sum of Mulliken charges =  -0.00000

 Dipole moment (field-independent basis, Debye):
    X=              1.6169    Y=              0.3811    Z=             -0.6908  Tot=              1.7991
 Quadrupole moment (field-independent basis, Debye-Ang):
   XX=            -53.4040   YY=            -39.9396   ZZ=            -47.9541
   XY=              2.5758   XZ=              0.2310   YZ=             -0.4272

  Exact polarizability:  73.516   1.273  69.868  -0.425   0.596  52.947
 Approx polarizability: 107.176   8.630 111.203  -2.004  -0.825  79.756

                      1                      2                      3
                      A                      A                      A
 Frequencies --    115.9211               223.5069               297.9728
 Red. masses --      5.4190                 2.6585                 1.2629
 Frc consts  --      0.0429                 0.0782                 0.0661
 IR Inten    --      1.8720                 2.2135                20.1694

                      4                      5                      6
                      A                      A                      A
 Frequencies --    326.0662               352.8656               363.6994
 Red. masses --      1.3821                 1.3562                 2.5122
 Frc consts  --      0.0866                 0.0995                 0.1958
 IR Inten    --     12.2430                33.2214                22.1738

                      7                      8                      9
                      A                      A                      A
 Frequencies --    439.0401               454.1656               490.1408
 Red. masses --      1.8518                 2.4172                 3.1035
 Frc consts  --      0.2103                 0.2938                 0.4393
 IR Inten    --     55.4148                 4.6534                36.7374

                     10                     11                     12
                      A                      A                      A
 Frequencies --    553.7384               577.1269               611.6273
 Red. masses --      3.1153                 3.4589                 4.7839
 Frc consts  --      0.5628                 0.6788                 1.0544
 IR Inten    --     49.8337                52.4051                14.7984

                     13                     14                     15
                      A                      A                      A
 Frequencies --    742.5351               767.3861               860.5508
 Red. masses --      1.8491                 4.4770                 1.8293
 Frc consts  --      0.6007                 1.5533                 0.7981
 IR Inten    --     67.5935                 4.0358               135.7083

                     16                     17                     18
                      A                      A                      A
 Frequencies --    898.9637               911.4464               941.0324
 Red. masses --      1.2987                 2.7733                 1.6883
 Frc consts  --      0.6184                 1.3574                 0.8809
 IR Inten    --     14.2181                34.3251               225.8472

                     19                     20                     21
                      A                      A                      A
 Frequencies --    954.3421               998.5304              1028.3464
 Red. masses --      1.7680                 1.8648                 1.9228
 Frc consts  --      0.9487                 1.0955                 1.1980
 IR Inten    --      9.2883                43.1081                 7.7963

                     22                     23                     24
                      A                      A                      A
 Frequencies --   1092.1508              1108.0828              1140.5248
 Red. masses --      2.6809                 2.4940                 2.0019
 Frc consts  --      1.8841                 1.8043                 1.5343
 IR Inten    --      6.1739                 3.6381                40.1614

                     25                     26                     27
                      A                      A                      A
 Frequencies --   1199.0475              1266.3125              1307.0720
 Red. masses --      1.8779                 1.5683                 1.9585
 Frc consts  --      1.5907                 1.4817                 1.9714
 IR Inten    --     18.9541                30.4684                42.6598

                     28                     29                     30
                      A                      A                      A
 Frequencies --   1345.1480              1369.2946              1392.3291
 Red. masses --      1.6216                 1.6320                 1.3730
 Frc consts  --      1.7288                 1.8029                 1.5682
 IR Inten    --     10.9224                20.1581                 3.9926

                     31                     32                     33
                      A                      A                      A
 Frequencies --   1471.4615              1480.8213              1486.2476
 Red. masses --      1.4090                 1.2739                 1.2427
 Frc consts  --      1.7975                 1.6458                 1.6173
 IR Inten    --     49.7573                31.8827                33.0616

                     34                     35                     36
                      A                      A                      A
 Frequencies --   1643.5635              1647.3801              1727.1013
 Red. masses --      1.1097                 1.1070                 6.3531
 Frc consts  --      1.7662                 1.7701                11.1654
 IR Inten    --     63.1038                15.8641                85.4608

                     37                     38                     39
                      A                      A                      A
 Frequencies --   2951.7019              3098.9753              3176.4809
 Red. masses --      1.0708                 1.0915                 1.0908
 Frc consts  --      5.4969                 6.1758                 6.4849
 IR Inten    --     67.0452                20.6395                15.7712

                     40                     41                     42
                      A                      A                      A
 Frequencies --   3475.7873              3492.9648              3560.6932
 Red. masses --      1.0487                 1.0492                 1.0922
 Frc consts  --      7.4645                 7.5422                 8.1590
 IR Inten    --      2.1037                 1.0195                 3.3140

                     43                     44                     45
                      A                      A                      A
 Frequencies --   3563.9825              3580.2037              3590.7196
 Red. masses --      1.0764                 1.0920                 1.0759
 Frc consts  --      8.0556                 8.2466                 8.1730
 IR Inten    --      5.6375                 2.4214                14.2576

 - Thermochemistry -
 -------------------
 Temperature   298.150 Kelvin.  Pressure   1.00000 Atm.
 Atom     1 has atomic number  7 and mass  14.00307

 Molecular mass:   115.08580 amu.
 Principal axes and moments of inertia in atomic units:
                           1         2         3
     Eigenvalues --   501.18356 959.528721092.73393
           X            0.99999   0.00430   0.00010
           Y           -0.00430   0.99997   0.00648
           Z           -0.00007  -0.00648   0.99998
 This molecule is an asymmetric top.
 Rotational symmetry number  1.
 Warning -- assumption of classical behavior for rotation
           may cause significant error
 Rotational temperatures (Kelvin)      0.17282     0.09027     0.07926
 Rotational constants (GHZ):           3.60096     1.88086     1.65158
 Zero-point vibrational energy     383265.9 (Joules/Mol)
                                   91.60274 (Kcal/Mol)
 Warning -- explicit consideration of  12 degrees of freedom as
           vibrations may cause significant error
 Vibrational temperatures:    166.78   321.58   428.72   469.14   507.69
          (Kelvin)            523.28   631.68   653.44   705.20   796.71
                              830.36   880.00  1068.34  1104.10  1238.14
                             1293.41  1311.37  1353.94  1373.09  1436.66
                             1479.56  1571.36  1594.28  1640.96  1725.16
                             1821.94  1880.59  1935.37  1970.11  2003.25
                             2117.10  2130.57  2138.38  2364.72  2370.21
                             2484.91  4246.84  4458.73  4570.25  5000.88
                             5025.60  5123.04  5127.78  5151.11  5166.24

 Zero-point correction=                           0.145978 (Hartree/Particle)
 Thermal correction to Energy=                    0.153509
 Thermal correction to Enthalpy=                  0.154453
 Thermal correction to Gibbs Free Energy=         0.114806
 Sum of electronic and zero-point Energies=           -393.335374
 Sum of electronic and thermal Energies=              -393.327843
 Sum of electronic and thermal Enthalpies=            -393.326899
 Sum of electronic and thermal Free Energies=         -393.366546

                     E (Thermal)             CV                S
                      KCal/Mol        Cal/Mol-Kelvin    Cal/Mol-Kelvin
 Total                   96.328             29.989             83.444
 Electronic               0.000              0.000              0.000
 Translational            0.889              2.981             40.137
 Rotational               0.889              2.981             27.754
 Vibrational             94.551             24.028             15.553
 Vibration     1          0.608              1.936              3.167
 Vibration     2          0.649              1.805              1.930
 Vibration     3          0.691              1.677              1.428
 Vibration     4          0.710              1.623              1.280
 Vibration     5          0.729              1.569              1.153
 Vibration     6          0.737              1.547              1.106
 Vibration     7          0.799              1.385              0.830
 Vibration     8          0.813              1.352              0.783
 Vibration     9          0.846              1.272              0.683
 Vibration    10          0.909              1.132              0.536
 Vibration    11          0.934              1.081              0.491
 Vibration    12          0.971              1.007              0.430

                           ! Non-Optimized Parameters !
 Normal termination of Gaussian 16 at Tue Jun  1 01:22:29 2021.
