 Gaussian 16, Revision A.03,
 Gaussian 16:  ES64L-G16RevA.03 25-Dec-2016

 -----------------------------
 # opt freq b3lyp/6-31g(2df,p)
 -----------------------------

 -------------------
 Title Card Required
 -------------------
 Symbolic Z-matrix:
 Charge =  0 Multiplicity = 1

 SCF Done:  E(RB3LYP) =  -299.924660709     A.U. after   12 cycles
 SCF Done:  E(RB3LYP) =  -299.945298520     A.U. after   11 cycles
 SCF Done:  E(RB3LYP) =  -299.953351352     A.U. after   11 cycles
 SCF Done:  E(RB3LYP) =  -299.958018859     A.U. after   11 cycles
 SCF Done:  E(RB3LYP) =  -299.961846605     A.U. after   11 cycles
 SCF Done:  E(RB3LYP) =  -299.964668261     A.U. after   11 cycles
 SCF Done:  E(RB3LYP) =  -299.965495339     A.U. after   10 cycles
 SCF Done:  E(RB3LYP) =  -299.965810543     A.U. after   10 cycles
 SCF Done:  E(RB3LYP) =  -299.965853913     A.U. after    9 cycles
 SCF Done:  E(RB3LYP) =  -299.965870438     A.U. after    7 cycles
 SCF Done:  E(RB3LYP) =  -299.965905565     A.U. after    9 cycles
 SCF Done:  E(RB3LYP) =  -299.965921020     A.U. after    9 cycles
 SCF Done:  E(RB3LYP) =  -299.965933557     A.U. after    8 cycles
 SCF Done:  E(RB3LYP) =  -299.965941508     A.U. after    9 cycles
 SCF Done:  E(RB3LYP) =  -299.965945575     A.U. after    7 cycles
 SCF Done:  E(RB3LYP) =  -299.965950206     A.U. after    9 cycles
 SCF Done:  E(RB3LYP) =  -299.965950645     A.U. after    7 cycles
 SCF Done:  E(RB3LYP) =  -299.965950796     A.U. after    7 cycles
 SCF Done:  E(RB3LYP) =  -299.965950870     A.U. after    7 cycles
 Optimization completed.
    -- Stationary point found.
 Normal termination of Gaussian 16 at Mon May 31 16:56:33 2021.

 ----------------------------------------------------------------------
 #N Geom=AllCheck Guess=TCheck SCRF=Check GenChk RB3LYP/6-31G(2df,p) Fr
 eq
 ----------------------------------------------------------------------

 Structure from the checkpoint file:  "NC1pNpCNN1.chk"
 -------------------
 Title Card Required
 -------------------
 Charge =  0 Multiplicity = 1

                         Standard orientation:
 ---------------------------------------------------------------------
 Center     Atomic      Atomic             Coordinates (Angstroms)
 Number     Number       Type             X           Y           Z
 ---------------------------------------------------------------------
      1          7           0        1.374470    1.079022    0.001016
      2          6           0        0.400266    0.003978    0.016693
      3          7           0        1.007398   -1.299758   -0.097587
      4          6           0       -0.767683    0.010585    1.042729
      5          7           0       -1.686757   -0.204910   -0.100897
      6          7           0       -0.612254    0.158685   -1.078506
      7          1           0        2.201246    0.823062    0.529765
      8          1           0        1.003999    1.934306    0.404866
      9          1           0        1.643068   -1.473380    0.675813
     10          1           0        1.536090   -1.345169   -0.964042
     11          1           0       -0.872711    0.985753    1.540884
     12          1           0       -0.787117   -0.788982    1.789183
     13          1           0       -2.437132    0.480476   -0.140693
     14          1           0       -0.662932    1.165286   -1.260497
 ---------------------------------------------------------------------

 SCF Done:  E(RB3LYP) =  -299.965950870     A.U. after    1 cycles

 The electronic state is 1-A.
 Alpha  occ. eigenvalues --  -14.33183 -14.32956 -14.32097 -14.30953 -10.26726
 Alpha  occ. eigenvalues --  -10.20402  -0.99091  -0.90159  -0.84268  -0.75235
 Alpha  occ. eigenvalues --   -0.68365  -0.56586  -0.52838  -0.49961  -0.48865
 Alpha  occ. eigenvalues --   -0.45363  -0.42776  -0.40892  -0.37774  -0.35281
 Alpha  occ. eigenvalues --   -0.28830  -0.25647  -0.23875  -0.20039
 Alpha virt. eigenvalues --    0.05512   0.07756   0.10882   0.12166   0.12541
 Alpha virt. eigenvalues --    0.15358   0.15992   0.16726   0.17199   0.19908
 Alpha virt. eigenvalues --    0.22942   0.26877   0.30502   0.33139   0.45364

 Mulliken charges:
               1
     1  N   -0.548469
     2  C    0.317047
     3  N   -0.499051
     4  C   -0.190156
     5  N   -0.281423
     6  N   -0.300767
     7  H    0.218369
     8  H    0.220534
     9  H    0.218729
    10  H    0.235839
    11  H    0.074928
    12  H    0.106520
    13  H    0.221539
    14  H    0.206363
 Sum of Mulliken charges =  -0.00000

 Dipole moment (field-independent basis, Debye):
    X=              1.4585    Y=              2.6411    Z=              2.4920  Tot=              3.9131
 Quadrupole moment (field-independent basis, Debye-Ang):
   XX=            -32.5706   YY=            -36.5759   ZZ=            -37.4830
   XY=             -5.8422   XZ=              1.1666   YZ=             -0.2588

  Exact polarizability:  55.051  -2.176  48.324   0.326  -0.781  46.516
 Approx polarizability:  74.673  -1.854  70.279   1.088  -1.403  68.910

                      1                      2                      3
                      A                      A                      A
 Frequencies --    140.5904               165.6790               266.5824
 Red. masses --      2.0116                 1.3398                 1.0611
 Frc consts  --      0.0234                 0.0217                 0.0444
 IR Inten    --      6.9918                30.7653                44.5132

                      4                      5                      6
                      A                      A                      A
 Frequencies --    351.6175               412.8919               451.6577
 Red. masses --      2.3104                 2.8780                 2.7100
 Frc consts  --      0.1683                 0.2891                 0.3257
 IR Inten    --      3.8644                15.1002                 5.5918

                      7                      8                      9
                      A                      A                      A
 Frequencies --    496.0044               672.6844               759.3755
 Red. masses --      2.8204                 3.8624                 2.2576
 Frc consts  --      0.4088                 1.0298                 0.7670
 IR Inten    --      1.6799                 8.5865                74.9384

                     10                     11                     12
                      A                      A                      A
 Frequencies --    800.2415               829.5697               915.8589
 Red. masses --      1.4652                 1.5895                 4.3991
 Frc consts  --      0.5528                 0.6445                 2.1740
 IR Inten    --     70.9248               198.4265                30.2685

                     13                     14                     15
                      A                      A                      A
 Frequencies --    943.0754               949.0020               992.9684
 Red. masses --      2.1390                 1.8100                 3.1135
 Frc consts  --      1.1209                 0.9604                 1.8087
 IR Inten    --     55.8251                 2.3515                43.6971

                     16                     17                     18
                      A                      A                      A
 Frequencies --   1017.3819              1041.4574              1088.7613
 Red. masses --      1.7396                 1.4574                 1.4317
 Frc consts  --      1.0609                 0.9314                 0.9999
 IR Inten    --      8.5338                37.4873                 3.9126

                     19                     20                     21
                      A                      A                      A
 Frequencies --   1162.8673              1224.8536              1274.9800
 Red. masses --      1.1754                 2.3357                 1.3952
 Frc consts  --      0.9365                 2.0646                 1.3363
 IR Inten    --     11.8163                28.3690                15.8708

                     22                     23                     24
                      A                      A                      A
 Frequencies --   1297.4548              1350.6404              1389.8266
 Red. masses --      1.5267                 1.5688                 1.9101
 Frc consts  --      1.5142                 1.6861                 2.1738
 IR Inten    --     18.5197                48.6754                44.4641

                     25                     26                     27
                      A                      A                      A
 Frequencies --   1415.9006              1496.1917              1633.7014
 Red. masses --      1.3525                 1.1138                 1.1058
 Frc consts  --      1.5975                 1.4690                 1.7389
 IR Inten    --     14.4928                 4.3981                21.2692

                     28                     29                     30
                      A                      A                      A
 Frequencies --   1651.7208              2986.3497              3080.8746
 Red. masses --      1.1190                 1.0663                 1.0984
 Frc consts  --      1.7987                 5.6027                 6.1429
 IR Inten    --     35.4726                65.7921                37.1696

                     31                     32                     33
                      A                      A                      A
 Frequencies --   3385.8051              3485.4298              3486.1103
 Red. masses --      1.0754                 1.0763                 1.0482
 Frc consts  --      7.2637                 7.7034                 7.5054
 IR Inten    --      8.2981                 2.6162                 1.1959

                     34                     35                     36
                      A                      A                      A
 Frequencies --   3492.7472              3578.2345              3582.4540
 Red. masses --      1.0495                 1.0935                 1.0926
 Frc consts  --      7.5435                 8.2492                 8.2615
 IR Inten    --      0.7019                 2.1254                 0.1598

 - Thermochemistry -
 -------------------
 Temperature   298.150 Kelvin.  Pressure   1.00000 Atm.
 Atom     1 has atomic number  7 and mass  14.00307

 Molecular mass:    88.07490 amu.
 Principal axes and moments of inertia in atomic units:
                           1         2         3
     Eigenvalues --   325.07334 543.86364 593.08965
           X            0.99890  -0.04671  -0.00476
           Y            0.04676   0.99884   0.01117
           Z            0.00424  -0.01138   0.99993
 This molecule is an asymmetric top.
 Rotational symmetry number  1.
 Rotational temperatures (Kelvin)      0.26644     0.15926     0.14604
 Rotational constants (GHZ):           5.55180     3.31837     3.04295
 Zero-point vibrational energy     318634.6 (Joules/Mol)
                                   76.15549 (Kcal/Mol)
 Warning -- explicit consideration of   7 degrees of freedom as
           vibrations may cause significant error
 Vibrational temperatures:    202.28   238.38   383.55   505.90   594.06
          (Kelvin)            649.83   713.64   967.84  1092.57  1151.37
                             1193.57  1317.72  1356.88  1365.40  1428.66
                             1463.79  1498.42  1566.48  1673.11  1762.29
                             1834.41  1866.75  1943.27  1999.65  2037.17
                             2152.69  2350.53  2376.46  4296.69  4432.69
                             4871.42  5014.76  5015.74  5025.28  5148.28
                             5154.35

 Zero-point correction=                           0.121362 (Hartree/Particle)
 Thermal correction to Energy=                    0.127808
 Thermal correction to Enthalpy=                  0.128752
 Thermal correction to Gibbs Free Energy=         0.091778
 Sum of electronic and zero-point Energies=           -299.844589
 Sum of electronic and thermal Energies=              -299.838143
 Sum of electronic and thermal Enthalpies=            -299.837199
 Sum of electronic and thermal Free Energies=         -299.874172

                     E (Thermal)             CV                S
                      KCal/Mol        Cal/Mol-Kelvin    Cal/Mol-Kelvin
 Total                   80.200             23.937             77.817
 Electronic               0.000              0.000              0.000
 Translational            0.889              2.981             39.339
 Rotational               0.889              2.981             26.153
 Vibrational             78.423             17.975             12.324
 Vibration     1          0.615              1.913              2.796
 Vibration     2          0.624              1.885              2.484
 Vibration     3          0.672              1.734              1.618
 Vibration     4          0.728              1.572              1.159
 Vibration     5          0.777              1.442              0.916
 Vibration     6          0.810              1.357              0.791
 Vibration     7          0.852              1.259              0.668

                           ! Non-Optimized Parameters !
 Normal termination of Gaussian 16 at Mon May 31 17:08:59 2021.
