 Gaussian 16, Revision A.03,
 Gaussian 16:  ES64L-G16RevA.03 25-Dec-2016

 -----------------------------
 # opt freq b3lyp/6-31g(2df,p)
 -----------------------------

 -------------------
 Title Card Required
 -------------------
 Symbolic Z-matrix:
 Charge =  0 Multiplicity = 1

 SCF Done:  E(RB3LYP) =  -447.536406230     A.U. after   15 cycles
 SCF Done:  E(RB3LYP) =  -447.542967374     A.U. after   13 cycles
 SCF Done:  E(RB3LYP) =  -447.545670763     A.U. after   13 cycles
 SCF Done:  E(RB3LYP) =  -447.548302460     A.U. after   14 cycles
 SCF Done:  E(RB3LYP) =  -447.549896430     A.U. after   12 cycles
 SCF Done:  E(RB3LYP) =  -447.551462782     A.U. after   12 cycles
 SCF Done:  E(RB3LYP) =  -447.553753650     A.U. after   14 cycles
 SCF Done:  E(RB3LYP) =  -447.552903237     A.U. after   14 cycles
 SCF Done:  E(RB3LYP) =  -447.554197092     A.U. after   13 cycles
 SCF Done:  E(RB3LYP) =  -447.556096627     A.U. after   12 cycles
 SCF Done:  E(RB3LYP) =  -447.565490072     A.U. after   12 cycles
 SCF Done:  E(RB3LYP) =  -447.566652838     A.U. after   12 cycles
 SCF Done:  E(RB3LYP) =  -447.567878836     A.U. after   13 cycles
 SCF Done:  E(RB3LYP) =  -447.568550986     A.U. after   12 cycles
 SCF Done:  E(RB3LYP) =  -447.568665536     A.U. after   12 cycles
 SCF Done:  E(RB3LYP) =  -447.568691926     A.U. after   10 cycles
 SCF Done:  E(RB3LYP) =  -447.568697622     A.U. after    9 cycles
 SCF Done:  E(RB3LYP) =  -447.568698635     A.U. after    8 cycles
 SCF Done:  E(RB3LYP) =  -447.568698795     A.U. after    7 cycles
 Optimization completed.
    -- Stationary point found.
 Normal termination of Gaussian 16 at Mon May 31 22:23:13 2021.

 ----------------------------------------------------------------------
 #N Geom=AllCheck Guess=TCheck SCRF=Check GenChk RB3LYP/6-31G(2df,p) Fr
 eq
 ----------------------------------------------------------------------

 Structure from the checkpoint file:  "NCC1pNpCdNNNdN1.chk"
 -------------------
 Title Card Required
 -------------------
 Charge =  0 Multiplicity = 1

                         Standard orientation:
 ---------------------------------------------------------------------
 Center     Atomic      Atomic             Coordinates (Angstroms)
 Number     Number       Type             X           Y           Z
 ---------------------------------------------------------------------
      1          7           0        2.301140   -0.985589   -0.305656
      2          6           0        1.153201   -0.338685   -0.943748
      3          6           0        0.391025    0.511627    0.098916
      4          7           0        1.296933    1.468312    0.681975
      5          6           0       -0.799852    1.186617   -0.503533
      6          7           0       -1.901910    0.565863   -0.701198
      7          7           0       -1.891527   -0.740110   -0.257720
      8          7           0       -1.207657   -1.045489    0.921691
      9          7           0       -0.147717   -0.445284    1.150873
     10          1           0        2.912631   -1.385569   -1.008231
     11          1           0        1.988340   -1.745889    0.289216
     12          1           0        0.447038   -1.027616   -1.426766
     13          1           0        1.528103    0.349389   -1.708108
     14          1           0        2.174263    0.988266    0.869383
     15          1           0        0.930863    1.799274    1.569168
     16          1           0       -0.759699    2.247788   -0.729358
     17          1           0       -2.832616   -1.106918   -0.194865
 ---------------------------------------------------------------------

 SCF Done:  E(RB3LYP) =  -447.568698795     A.U. after    1 cycles

 The electronic state is 1-A.
 Alpha  occ. eigenvalues --  -14.41584 -14.41167 -14.37349 -14.36963 -14.32125
 Alpha  occ. eigenvalues --  -14.30940 -10.25384 -10.22629 -10.21921  -1.09237
 Alpha  occ. eigenvalues --   -0.97611  -0.92126  -0.87650  -0.84282  -0.72286
 Alpha  occ. eigenvalues --   -0.67944  -0.64153  -0.57214  -0.54615  -0.51650
 Alpha  occ. eigenvalues --   -0.49839  -0.47019  -0.45222  -0.44620  -0.42690
 Alpha  occ. eigenvalues --   -0.39446  -0.38705  -0.36882  -0.35029  -0.31990
 Alpha  occ. eigenvalues --   -0.27534  -0.25725  -0.24289  -0.22904
 Alpha virt. eigenvalues --   -0.03664  -0.00645   0.08065   0.09194   0.11605
 Alpha virt. eigenvalues --    0.13275   0.13782   0.15203   0.16206   0.17369
 Alpha virt. eigenvalues --    0.18723   0.20262   0.22706   0.23670   0.25367

 Mulliken charges:
               1
     1  N   -0.518894
     2  C   -0.165620
     3  C    0.219086
     4  N   -0.556403
     5  C   -0.002105
     6  N   -0.161843
     7  N   -0.191373
     8  N   -0.046786
     9  N   -0.180382
    10  H    0.236100
    11  H    0.244166
    12  H    0.111931
    13  H    0.122716
    14  H    0.247575
    15  H    0.231301
    16  H    0.135232
    17  H    0.275299
 Sum of Mulliken charges =  -0.00000

 Dipole moment (field-independent basis, Debye):
    X=              0.3530    Y=             -0.9495    Z=             -1.1600  Tot=              1.5400
 Quadrupole moment (field-independent basis, Debye-Ang):
   XX=            -49.8301   YY=            -50.9959   ZZ=            -53.6380
   XY=             -1.4734   XZ=             -1.9832   YZ=              4.2457

  Exact polarizability:  83.258   5.644  69.328   4.230  -3.460  59.056
 Approx polarizability: 132.718  18.617 114.663  15.369  -9.636 100.005

                      1                      2                      3
                      A                      A                      A
 Frequencies --    109.9794               160.1701               196.0332
 Red. masses --      3.9667                 3.7210                 2.7099
 Frc consts  --      0.0283                 0.0562                 0.0614
 IR Inten    --      1.5585                 5.6818                 3.5069

                      4                      5                      6
                      A                      A                      A
 Frequencies --    249.4600               315.2919               354.9712
 Red. masses --      1.1848                 1.7824                 1.7200
 Frc consts  --      0.0434                 0.1044                 0.1277
 IR Inten    --     23.6594                30.7866                38.2040

                      7                      8                      9
                      A                      A                      A
 Frequencies --    364.6273               414.8257               461.6899
 Red. masses --      3.3629                 3.0420                 4.5564
 Frc consts  --      0.2634                 0.3084                 0.5722
 IR Inten    --      0.1636                 8.8550                18.0034

                     10                     11                     12
                      A                      A                      A
 Frequencies --    536.9673               569.2673               612.7005
 Red. masses --      4.2232                 7.0190                 6.3811
 Frc consts  --      0.7174                 1.3402                 1.4114
 IR Inten    --      5.9206                10.4998                65.9530

                     13                     14                     15
                      A                      A                      A
 Frequencies --    662.2461               718.3545               733.2617
 Red. masses --      4.2092                 2.5111                 3.8864
 Frc consts  --      1.0877                 0.7635                 1.2312
 IR Inten    --     14.9658                48.7368                52.0786

                     16                     17                     18
                      A                      A                      A
 Frequencies --    843.0811               867.4345               897.0701
 Red. masses --      1.5867                 1.4823                 1.7544
 Frc consts  --      0.6645                 0.6572                 0.8318
 IR Inten    --     74.2813                36.7317               142.8508

                     19                     20                     21
                      A                      A                      A
 Frequencies --    920.6025               930.9999               976.5045
 Red. masses --      2.1191                 3.3900                 2.2306
 Frc consts  --      1.0581                 1.7312                 1.2532
 IR Inten    --     21.7354                29.2104                15.1744

                     22                     23                     24
                      A                      A                      A
 Frequencies --    990.9044              1073.5847              1084.2446
 Red. masses --      2.2291                 3.2879                 1.8393
 Frc consts  --      1.2896                 2.2328                 1.2740
 IR Inten    --     41.6245                 2.8856                10.8055

                     25                     26                     27
                      A                      A                      A
 Frequencies --   1114.3623              1207.2266              1245.9667
 Red. masses --      3.5471                 1.4531                 2.4856
 Frc consts  --      2.5952                 1.2477                 2.2735
 IR Inten    --     26.7351                 8.0304                21.8052

                     28                     29                     30
                      A                      A                      A
 Frequencies --   1319.6562              1324.0990              1380.4824
 Red. masses --      1.3252                 1.5186                 1.6997
 Frc consts  --      1.3597                 1.5687                 1.9084
 IR Inten    --      4.5985                17.9764                21.0559

                     31                     32                     33
                      A                      A                      A
 Frequencies --   1416.3950              1425.6106              1493.9661
 Red. masses --      1.4675                 1.3754                 1.0825
 Frc consts  --      1.7345                 1.6470                 1.4236
 IR Inten    --     24.1157                44.4129                 4.7780

                     34                     35                     36
                      A                      A                      A
 Frequencies --   1615.9710              1650.3850              1653.9318
 Red. masses --      3.4976                 1.1323                 1.1072
 Frc consts  --      5.3813                 1.8171                 1.7845
 IR Inten    --     44.8522                17.8144                45.8565

                     37                     38                     39
                      A                      A                      A
 Frequencies --   1691.3588              3010.7886              3079.6843
 Red. masses --      7.6390                 1.0654                 1.0972
 Frc consts  --     12.8754                 5.6901                 6.1313
 IR Inten    --      0.5258                28.1912                14.4810

                     40                     41                     42
                      A                      A                      A
 Frequencies --   3181.8623              3486.1987              3511.5768
 Red. masses --      1.0921                 1.0497                 1.0491
 Frc consts  --      6.5144                 7.5163                 7.6220
 IR Inten    --      3.6910                15.9491                 1.1256

                     43                     44                     45
                      A                      A                      A
 Frequencies --   3570.7542              3583.0746              3593.4412
 Red. masses --      1.0915                 1.0783                 1.0933
 Frc consts  --      8.1995                 8.1567                 8.3181
 IR Inten    --     15.1300                37.0647                 3.8926

 - Thermochemistry -
 -------------------
 Temperature   298.150 Kelvin.  Pressure   1.00000 Atm.
 Atom     1 has atomic number  7 and mass  14.00307

 Molecular mass:   128.08104 amu.
 Principal axes and moments of inertia in atomic units:
                           1         2         3
     Eigenvalues --   649.856361225.567311379.60911
           X            0.99989  -0.01262  -0.00713
           Y            0.01323   0.99556   0.09315
           Z            0.00592  -0.09323   0.99563
 This molecule is an asymmetric top.
 Rotational symmetry number  1.
 Warning -- assumption of classical behavior for rotation
           may cause significant error
 Rotational temperatures (Kelvin)      0.13328     0.07067     0.06278
 Rotational constants (GHZ):           2.77714     1.47258     1.30815
 Zero-point vibrational energy     362474.9 (Joules/Mol)
                                   86.63357 (Kcal/Mol)
 Warning -- explicit consideration of  12 degrees of freedom as
           vibrations may cause significant error
 Vibrational temperatures:    158.24   230.45   282.05   358.92   453.63
          (Kelvin)            510.72   524.62   596.84   664.27   772.58
                              819.05   881.54   952.82  1033.55  1055.00
                             1213.01  1248.04  1290.68  1324.54  1339.50
                             1404.97  1425.69  1544.65  1559.99  1603.32
                             1736.93  1792.67  1898.69  1905.08  1986.21
                             2037.88  2051.14  2149.48  2325.02  2374.54
                             2379.64  2433.49  4331.85  4430.98  4577.99
                             5015.86  5052.38  5137.52  5155.25  5170.16

 Zero-point correction=                           0.138059 (Hartree/Particle)
 Thermal correction to Energy=                    0.146327
 Thermal correction to Enthalpy=                  0.147271
 Thermal correction to Gibbs Free Energy=         0.105619
 Sum of electronic and zero-point Energies=           -447.430639
 Sum of electronic and thermal Energies=              -447.422372
 Sum of electronic and thermal Enthalpies=            -447.421427
 Sum of electronic and thermal Free Energies=         -447.463080

                     E (Thermal)             CV                S
                      KCal/Mol        Cal/Mol-Kelvin    Cal/Mol-Kelvin
 Total                   91.822             32.100             87.665
 Electronic               0.000              0.000              0.000
 Translational            0.889              2.981             40.456
 Rotational               0.889              2.981             28.487
 Vibrational             90.044             26.139             18.722
 Vibration     1          0.606              1.941              3.269
 Vibration     2          0.622              1.891              2.548
 Vibration     3          0.636              1.845              2.170
 Vibration     4          0.662              1.764              1.734
 Vibration     5          0.703              1.644              1.334
 Vibration     6          0.731              1.565              1.144
 Vibration     7          0.738              1.545              1.102
 Vibration     8          0.778              1.438              0.910
 Vibration     9          0.819              1.335              0.761
 Vibration    10          0.892              1.168              0.572
 Vibration    11          0.925              1.098              0.506
 Vibration    12          0.972              1.005              0.428

 Optimization completed.
    -- Stationary point found.
 Normal termination of Gaussian 16 at Mon May 31 22:53:26 2021.
