 Gaussian 16, Revision A.03,
 Gaussian 16:  ES64L-G16RevA.03 25-Dec-2016

 -----------------------------
 # opt freq b3lyp/6-31g(2df,p)
 -----------------------------

 -------------------
 Title Card Required
 -------------------
 Symbolic Z-matrix:
 Charge =  0 Multiplicity = 1

 SCF Done:  E(RB3LYP) =  -464.715559863     A.U. after   14 cycles
 SCF Done:  E(RB3LYP) =  -464.734126858     A.U. after   14 cycles
 SCF Done:  E(RB3LYP) =  -464.742165734     A.U. after   13 cycles
 SCF Done:  E(RB3LYP) =  -464.744460014     A.U. after   13 cycles
 SCF Done:  E(RB3LYP) =  -464.745235688     A.U. after   12 cycles
 SCF Done:  E(RB3LYP) =  -464.745263395     A.U. after   12 cycles
 SCF Done:  E(RB3LYP) =  -464.745472270     A.U. after   12 cycles
 SCF Done:  E(RB3LYP) =  -464.745528819     A.U. after   10 cycles
 SCF Done:  E(RB3LYP) =  -464.745544740     A.U. after   10 cycles
 SCF Done:  E(RB3LYP) =  -464.745547965     A.U. after    8 cycles
 SCF Done:  E(RB3LYP) =  -464.745549990     A.U. after    8 cycles
 SCF Done:  E(RB3LYP) =  -464.745550576     A.U. after    8 cycles
 Optimization completed.
    -- Stationary point found.
 Normal termination of Gaussian 16 at Mon May 31 22:04:50 2021.

 ----------------------------------------------------------------------
 #N Geom=AllCheck Guess=TCheck SCRF=Check GenChk RB3LYP/6-31G(2df,p) Fr
 eq
 ----------------------------------------------------------------------

 Structure from the checkpoint file:  "NCC1NNNdNNN1.chk"
 -------------------
 Title Card Required
 -------------------
 Charge =  0 Multiplicity = 1

                         Standard orientation:
 ---------------------------------------------------------------------
 Center     Atomic      Atomic             Coordinates (Angstroms)
 Number     Number       Type             X           Y           Z
 ---------------------------------------------------------------------
      1          7           0        2.024173   -0.740391   -0.906790
      2          6           0        2.130958    0.363570    0.047912
      3          6           0        0.764796    0.704620    0.648037
      4          7           0        0.131575   -0.430287    1.293781
      5          7           0       -0.529581   -1.363626    0.460366
      6          7           0       -1.570714   -1.132077   -0.406096
      7          7           0       -2.119052   -0.033857   -0.588833
      8          7           0       -1.487934    1.127422    0.006141
      9          7           0       -0.113358    1.188267   -0.436369
     10          1           0        2.933339   -0.946337   -1.306652
     11          1           0        1.414978   -0.454165   -1.667665
     12          1           0        2.552097    1.292080   -0.381604
     13          1           0        2.791543    0.059985    0.866219
     14          1           0        0.908671    1.447436    1.447966
     15          1           0       -0.550544   -0.108321    1.966844
     16          1           0        0.104431   -2.048682    0.073607
     17          1           0       -1.980976    1.892528   -0.442351
     18          1           0        0.106172    2.148180   -0.687455
 ---------------------------------------------------------------------

 SCF Done:  E(RB3LYP) =  -464.745550576     A.U. after    1 cycles

 The electronic state is 1-A.
 Alpha  occ. eigenvalues --  -14.38800 -14.38163 -14.37606 -14.37011 -14.35622
 Alpha  occ. eigenvalues --  -14.35223 -14.31535 -10.24579 -10.21427  -1.07237
 Alpha  occ. eigenvalues --   -0.97190  -0.96248  -0.88355  -0.81144  -0.80138
 Alpha  occ. eigenvalues --   -0.69497  -0.61989  -0.59514  -0.55229  -0.53583
 Alpha  occ. eigenvalues --   -0.50856  -0.48688  -0.47864  -0.45429  -0.43393
 Alpha  occ. eigenvalues --   -0.40149  -0.39596  -0.37693  -0.36213  -0.31094
 Alpha  occ. eigenvalues --   -0.28776  -0.25741  -0.24912  -0.23327  -0.19843
 Alpha virt. eigenvalues --   -0.00308   0.05788   0.08730   0.10412   0.10789
 Alpha virt. eigenvalues --    0.12624   0.14272   0.14980   0.15639   0.16919
 Alpha virt. eigenvalues --    0.17930   0.19147   0.21351   0.21915   0.22830

 Mulliken charges:
               1
     1  N   -0.511193
     2  C   -0.147792
     3  C    0.092765
     4  N   -0.262919
     5  N   -0.181467
     6  N   -0.044647
     7  N   -0.099185
     8  N   -0.288640
     9  N   -0.285531
    10  H    0.231020
    11  H    0.240865
    12  H    0.072931
    13  H    0.114011
    14  H    0.071666
    15  H    0.252370
    16  H    0.270986
    17  H    0.246045
    18  H    0.228718
 Sum of Mulliken charges =  -0.00000

 Dipole moment (field-independent basis, Debye):
    X=              3.2049    Y=              3.3107    Z=             -0.0624  Tot=              4.6082
 Quadrupole moment (field-independent basis, Debye-Ang):
   XX=            -54.7744   YY=            -48.7319   ZZ=            -52.1182
   XY=             -3.4124   XZ=             -4.2764   YZ=             -0.4069

  Exact polarizability:  79.530  -1.904  74.008   5.684   0.077  59.359
 Approx polarizability: 114.208  -8.869 125.434  14.899  -4.133  95.432

                      1                      2                      3
                      A                      A                      A
 Frequencies --    102.6131               143.4789               226.3135
 Red. masses --      4.7805                 3.2072                 2.3482
 Frc consts  --      0.0297                 0.0389                 0.0709
 IR Inten    --      2.8414                 1.4026                21.4464

                      4                      5                      6
                      A                      A                      A
 Frequencies --    264.3436               309.7332               337.0831
 Red. masses --      2.2899                 2.3842                 1.9031
 Frc consts  --      0.0943                 0.1348                 0.1274
 IR Inten    --      7.0085                15.7659                28.6775

                      7                      8                      9
                      A                      A                      A
 Frequencies --    367.5489               415.4915               443.4461
 Red. masses --      2.5072                 4.5392                 4.0876
 Frc consts  --      0.1996                 0.4617                 0.4736
 IR Inten    --     34.2592                 3.7898                17.8046

                     10                     11                     12
                      A                      A                      A
 Frequencies --    472.0587               585.2790               598.6858
 Red. masses --      1.9607                 3.1675                 2.2496
 Frc consts  --      0.2574                 0.6393                 0.4751
 IR Inten    --    160.8592                49.2746                57.0104

                     13                     14                     15
                      A                      A                      A
 Frequencies --    682.7313               732.1055               743.5297
 Red. masses --      3.3921                 2.3341                 4.8383
 Frc consts  --      0.9316                 0.7371                 1.5759
 IR Inten    --     14.7290                74.3063                13.9068

                     16                     17                     18
                      A                      A                      A
 Frequencies --    824.8943               844.2418               872.7979
 Red. masses --      2.3489                 3.1767                 1.4439
 Frc consts  --      0.9417                 1.3340                 0.6481
 IR Inten    --     15.1222                17.1789                59.0324

                     19                     20                     21
                      A                      A                      A
 Frequencies --    933.9659               956.2757               976.4124
 Red. masses --      3.1312                 2.9364                 3.0464
 Frc consts  --      1.6092                 1.5821                 1.7112
 IR Inten    --      4.0845                24.8768                26.7507

                     22                     23                     24
                      A                      A                      A
 Frequencies --   1032.3247              1059.7115              1065.8236
 Red. masses --      1.9664                 2.9196                 2.8421
 Frc consts  --      1.2347                 1.9318                 1.9022
 IR Inten    --     22.3121                20.7760                18.2163

                     25                     26                     27
                      A                      A                      A
 Frequencies --   1110.0487              1134.3059              1177.4267
 Red. masses --      2.0103                 1.9696                 2.0119
 Frc consts  --      1.4594                 1.4931                 1.6433
 IR Inten    --     31.3545                24.1790                26.7893

                     28                     29                     30
                      A                      A                      A
 Frequencies --   1214.1495              1307.3920              1339.4546
 Red. masses --      1.7678                 1.2377                 1.3590
 Frc consts  --      1.5354                 1.2464                 1.4366
 IR Inten    --     20.2846                10.7740                 6.6252

                     31                     32                     33
                      A                      A                      A
 Frequencies --   1386.1369              1425.7178              1442.8270
 Red. masses --      1.2774                 1.3789                 1.4290
 Frc consts  --      1.4460                 1.6514                 1.7527
 IR Inten    --     12.3820                 9.1475                 2.2832

                     34                     35                     36
                      A                      A                      A
 Frequencies --   1465.5313              1490.7480              1501.9563
 Red. masses --      1.2940                 1.1928                 1.1151
 Frc consts  --      1.6374                 1.5619                 1.4821
 IR Inten    --     44.4371                15.8268                 1.9700

                     37                     38                     39
                      A                      A                      A
 Frequencies --   1556.9983              1631.3373              1641.7674
 Red. masses --      1.1673                 3.3230                 1.0892
 Frc consts  --      1.6672                 5.2104                 1.7298
 IR Inten    --     10.7662                28.8034                41.6338

                     40                     41                     42
                      A                      A                      A
 Frequencies --   2922.2392              2982.6438              3075.1576
 Red. masses --      1.0730                 1.0843                 1.0874
 Frc consts  --      5.3987                 5.6835                 6.0585
 IR Inten    --     76.1040                65.0405                24.8131

                     43                     44                     45
                      A                      A                      A
 Frequencies --   3499.1771              3499.7878              3534.1290
 Red. masses --      1.0517                 1.0726                 1.0767
 Frc consts  --      7.5872                 7.7403                 7.9230
 IR Inten    --      1.7045                 0.7942                 6.3056

                     46                     47                     48
                      A                      A                      A
 Frequencies --   3576.8294              3581.9358              3609.4829
 Red. masses --      1.0753                 1.0929                 1.0773
 Frc consts  --      8.1058                 8.2615                 8.2697
 IR Inten    --      3.3523                 3.2603                61.7994

 - Thermochemistry -
 -------------------
 Temperature   298.150 Kelvin.  Pressure   1.00000 Atm.
 Atom     1 has atomic number  7 and mass  14.00307

 Molecular mass:   131.09194 amu.
 Principal axes and moments of inertia in atomic units:
                           1         2         3
     Eigenvalues --   648.369971236.708081421.87478
           X            0.99978  -0.01224  -0.01719
           Y            0.01258   0.99974   0.01923
           Z            0.01695  -0.01944   0.99967
 This molecule is an asymmetric top.
 Rotational symmetry number  1.
 Warning -- assumption of classical behavior for rotation
           may cause significant error
 Rotational temperatures (Kelvin)      0.13359     0.07004     0.06092
 Rotational constants (GHZ):           2.78351     1.45931     1.26927
 Zero-point vibrational energy     395354.3 (Joules/Mol)
                                   94.49193 (Kcal/Mol)
 Warning -- explicit consideration of  12 degrees of freedom as
           vibrations may cause significant error
 Vibrational temperatures:    147.64   206.43   325.61   380.33   445.64
          (Kelvin)            484.99   528.82   597.80   638.02   679.19
                              842.09   861.38   982.30  1053.34  1069.77
                             1186.84  1214.68  1255.76  1343.77  1375.87
                             1404.84  1485.29  1524.69  1533.48  1597.11
                             1632.01  1694.05  1746.89  1881.05  1927.18
                             1994.34  2051.29  2075.91  2108.57  2144.85
                             2160.98  2240.17  2347.13  2362.14  4204.45
                             4291.36  4424.47  5034.54  5035.41  5084.82
                             5146.26  5153.61  5193.24

 Zero-point correction=                           0.150582 (Hartree/Particle)
 Thermal correction to Energy=                    0.158934
 Thermal correction to Enthalpy=                  0.159878
 Thermal correction to Gibbs Free Energy=         0.118015
 Sum of electronic and zero-point Energies=           -464.594968
 Sum of electronic and thermal Energies=              -464.586617
 Sum of electronic and thermal Enthalpies=            -464.585673
 Sum of electronic and thermal Free Energies=         -464.627536

                     E (Thermal)             CV                S
                      KCal/Mol        Cal/Mol-Kelvin    Cal/Mol-Kelvin
 Total                   99.732             32.644             88.109
 Electronic               0.000              0.000              0.000
 Translational            0.889              2.981             40.525
 Rotational               0.889              2.981             28.524
 Vibrational             97.955             26.683             19.060
 Vibration     1          0.605              1.947              3.404
 Vibration     2          0.616              1.910              2.757
 Vibration     3          0.650              1.801              1.908
 Vibration     4          0.671              1.738              1.633
 Vibration     5          0.699              1.655              1.364
 Vibration     6          0.718              1.601              1.226
 Vibration     7          0.740              1.539              1.090
 Vibration     8          0.779              1.437              0.907
 Vibration     9          0.803              1.375              0.816
 Vibration    10          0.829              1.312              0.732
 Vibration    11          0.942              1.063              0.476
 Vibration    12          0.957              1.035              0.452

                           ! Non-Optimized Parameters !
 Normal termination of Gaussian 16 at Mon May 31 22:42:26 2021.
