 Gaussian 16, Revision A.03,
 Gaussian 16:  ES64L-G16RevA.03 25-Dec-2016

 -----------------------------
 # opt freq b3lyp/6-31g(2df,p)
 -----------------------------

 -------------------
 Title Card Required
 -------------------
 Symbolic Z-matrix:
 Charge =  0 Multiplicity = 1

 SCF Done:  E(RB3LYP) =  -403.141594536     A.U. after   12 cycles
 SCF Done:  E(RB3LYP) =  -403.145883012     A.U. after   10 cycles
 SCF Done:  E(RB3LYP) =  -403.146419386     A.U. after    9 cycles
 SCF Done:  E(RB3LYP) =  -403.146517304     A.U. after    9 cycles
 SCF Done:  E(RB3LYP) =  -403.146679810     A.U. after   10 cycles
 SCF Done:  E(RB3LYP) =  -403.146735328     A.U. after   10 cycles
 SCF Done:  E(RB3LYP) =  -403.146805260     A.U. after   10 cycles
 SCF Done:  E(RB3LYP) =  -403.146851106     A.U. after    9 cycles
 SCF Done:  E(RB3LYP) =  -403.146870617     A.U. after    9 cycles
 SCF Done:  E(RB3LYP) =  -403.146879372     A.U. after    8 cycles
 SCF Done:  E(RB3LYP) =  -403.151550346     A.U. after   10 cycles
 SCF Done:  E(RB3LYP) =  -403.152895965     A.U. after   10 cycles
 SCF Done:  E(RB3LYP) =  -403.153266509     A.U. after    9 cycles
 SCF Done:  E(RB3LYP) =  -403.153328939     A.U. after    9 cycles
 SCF Done:  E(RB3LYP) =  -403.153335577     A.U. after    7 cycles
 SCF Done:  E(RB3LYP) =  -403.153341856     A.U. after    8 cycles
 SCF Done:  E(RB3LYP) =  -403.153344631     A.U. after    8 cycles
 SCF Done:  E(RB3LYP) =  -403.153345332     A.U. after    7 cycles
 SCF Done:  E(RB3LYP) =  -403.153345449     A.U. after    6 cycles
 Optimization completed.
    -- Stationary point found.
 Normal termination of Gaussian 16 at Mon May 31 19:26:28 2021.

 ----------------------------------------------------------------------
 #N Geom=AllCheck Guess=TCheck SCRF=Check GenChk RB3LYP/6-31G(2df,p) Fr
 eq
 ----------------------------------------------------------------------

 Structure from the checkpoint file:  "NCCCCCpNpCN.chk"
 -------------------
 Title Card Required
 -------------------
 Charge =  0 Multiplicity = 1

                         Standard orientation:
 ---------------------------------------------------------------------
 Center     Atomic      Atomic             Coordinates (Angstroms)
 Number     Number       Type             X           Y           Z
 ---------------------------------------------------------------------
      1          7           0       -4.626157   -0.341607    0.072126
      2          6           0       -3.399919    0.373685   -0.296231
      3          6           0       -2.164723   -0.413987    0.141250
      4          6           0       -0.845695    0.258298   -0.252535
      5          6           0        0.391898   -0.525283    0.198595
      6          6           0        1.735226    0.107021   -0.209996
      7          7           0        1.986931    1.449618    0.338393
      8          6           0        2.920347   -0.796389    0.186052
      9          7           0        4.238637   -0.330893   -0.239852
     10          1           0       -5.438556    0.174492   -0.252261
     11          1           0       -4.706580   -0.378199    1.084914
     12          1           0       -3.338197    1.397617    0.115523
     13          1           0       -3.392456    0.479713   -1.388634
     14          1           0       -2.221739   -1.420532   -0.290138
     15          1           0       -2.192447   -0.547329    1.232699
     16          1           0       -0.815925    1.270622    0.172834
     17          1           0       -0.814952    0.385313   -1.344234
     18          1           0        0.340328   -1.542667   -0.213206
     19          1           0        0.373582   -0.639928    1.292904
     20          1           0        1.750133    0.214456   -1.304970
     21          1           0        1.828042    1.442406    1.343886
     22          1           0        1.334766    2.124293   -0.047645
     23          1           0        2.756969   -1.806051   -0.207874
     24          1           0        2.928494   -0.891928    1.282261
     25          1           0        4.291625    0.661861   -0.019621
     26          1           0        4.298231   -0.384047   -1.253919
 ---------------------------------------------------------------------

 SCF Done:  E(RB3LYP) =  -403.153345449     A.U. after    1 cycles

 The electronic state is 1-A.
 Alpha  occ. eigenvalues --  -14.31025 -14.30527 -14.29139 -10.20427 -10.20252
 Alpha  occ. eigenvalues --  -10.19340 -10.18115 -10.17698 -10.17671  -0.89308
 Alpha  occ. eigenvalues --   -0.87561  -0.85137  -0.78779  -0.72835  -0.67560
 Alpha  occ. eigenvalues --   -0.61378  -0.58042  -0.57536  -0.50242  -0.48582
 Alpha  occ. eigenvalues --   -0.46614  -0.46438  -0.44729  -0.42964  -0.42042
 Alpha  occ. eigenvalues --   -0.40888  -0.39384  -0.37228  -0.35694  -0.34501
 Alpha  occ. eigenvalues --   -0.34137  -0.32937  -0.32619  -0.32468  -0.24129
 Alpha  occ. eigenvalues --   -0.23403  -0.22187
 Alpha virt. eigenvalues --    0.07130   0.08266   0.10119   0.10672   0.11129
 Alpha virt. eigenvalues --    0.12243   0.13257   0.14556   0.15985   0.16385
 Alpha virt. eigenvalues --    0.17466   0.18348   0.19061   0.19364   0.20059

 Mulliken charges:
               1
     1  N   -0.508824
     2  C   -0.148025
     3  C   -0.153314
     4  C   -0.191288
     5  C   -0.179029
     6  C    0.017201
     7  N   -0.512653
     8  C   -0.134557
     9  N   -0.507527
    10  H    0.223997
    11  H    0.220920
    12  H    0.073680
    13  H    0.100496
    14  H    0.107502
    15  H    0.085661
    16  H    0.081771
    17  H    0.092549
    18  H    0.093487
    19  H    0.085119
    20  H    0.067281
    21  H    0.220120
    22  H    0.229649
    23  H    0.096285
    24  H    0.091909
    25  H    0.232160
    26  H    0.215430
 Sum of Mulliken charges =  -0.00000

 Dipole moment (field-independent basis, Debye):
    X=             -2.3628    Y=              1.6764    Z=              0.1439  Tot=              2.9007
 Quadrupole moment (field-independent basis, Debye-Ang):
   XX=            -70.0706   YY=            -59.7934   ZZ=            -54.2142
   XY=             -3.5924   XZ=             -5.1242   YZ=              0.5774

  Exact polarizability: 111.584  -0.191  80.322  -1.548  -0.527  78.892
 Approx polarizability: 123.919   1.321 119.415  -1.092   0.283 123.613

                      1                      2                      3
                      A                      A                      A
 Frequencies --     50.3616                57.6965                80.6233
 Red. masses --      3.6874                 1.8604                 3.8478
 Frc consts  --      0.0055                 0.0036                 0.0147
 IR Inten    --      1.0088                 1.9033                 0.6147

                      4                      5                      6
                      A                      A                      A
 Frequencies --    118.9457               141.1467               162.7311
 Red. masses --      2.6214                 1.8242                 2.1842
 Frc consts  --      0.0219                 0.0214                 0.0341
 IR Inten    --      1.1686                 2.0662                 1.2897

                      7                      8                      9
                      A                      A                      A
 Frequencies --    203.9973               241.3537               261.3520
 Red. masses --      3.0992                 2.1458                 1.1465
 Frc consts  --      0.0760                 0.0736                 0.0461
 IR Inten    --      2.7400                 5.8167                51.8553

                     10                     11                     12
                      A                      A                      A
 Frequencies --    275.1610               299.9649               335.9048
 Red. masses --      1.5397                 1.5137                 1.6494
 Frc consts  --      0.0687                 0.0802                 0.1097
 IR Inten    --      9.3496                21.8444                28.7046

                     13                     14                     15
                      A                      A                      A
 Frequencies --    393.8896               455.6502               487.7663
 Red. masses --      2.7189                 2.1331                 3.1409
 Frc consts  --      0.2485                 0.2609                 0.4403
 IR Inten    --      3.5603                 4.4411                 4.1412

                     16                     17                     18
                      A                      A                      A
 Frequencies --    558.8009               741.2336               786.2180
 Red. masses --      2.4446                 1.0906                 1.1730
 Frc consts  --      0.4498                 0.3530                 0.4272
 IR Inten    --     22.8932                 3.7360                 0.7004

                     19                     20                     21
                      A                      A                      A
 Frequencies --    833.7915               852.9531               866.1050
 Red. masses --      2.1960                 1.2671                 1.5670
 Frc consts  --      0.8995                 0.5431                 0.6925
 IR Inten    --     39.0477               170.8964                18.1942

                     22                     23                     24
                      A                      A                      A
 Frequencies --    901.7152               926.2334               964.5630
 Red. masses --      1.4788                 1.4334                 2.1152
 Frc consts  --      0.7084                 0.7245                 1.1595
 IR Inten    --     63.1352                87.1675                69.3236

                     25                     26                     27
                      A                      A                      A
 Frequencies --    976.7127              1019.2971              1034.6933
 Red. masses --      2.0882                 1.8470                 2.4357
 Frc consts  --      1.1737                 1.1306                 1.5364
 IR Inten    --     94.4212                18.5347                 2.2926

                     28                     29                     30
                      A                      A                      A
 Frequencies --   1057.2364              1080.9942              1092.8051
 Red. masses --      2.3305                 1.5005                 2.1695
 Frc consts  --      1.5348                 1.0331                 1.5265
 IR Inten    --      2.1235                 1.5806                 8.4528

                     31                     32                     33
                      A                      A                      A
 Frequencies --   1101.2941              1133.6191              1157.5477
 Red. masses --      1.9588                 1.5031                 2.1670
 Frc consts  --      1.3998                 1.1381                 1.7108
 IR Inten    --      4.9055                 7.7567                 8.7190

                     34                     35                     36
                      A                      A                      A
 Frequencies --   1164.9933              1236.9869              1253.8663
 Red. masses --      1.8207                 1.3198                 1.4869
 Frc consts  --      1.4559                 1.1898                 1.3774
 IR Inten    --     21.2699                 1.8000                 3.8286

                     37                     38                     39
                      A                      A                      A
 Frequencies --   1286.4338              1313.2171              1318.7228
 Red. masses --      1.3307                 1.3323                 1.2339
 Frc consts  --      1.2975                 1.3537                 1.2642
 IR Inten    --      0.9033                 0.7637                 2.3892

                     40                     41                     42
                      A                      A                      A
 Frequencies --   1328.1319              1340.3515              1369.8288
 Red. masses --      1.1093                 1.1778                 1.3877
 Frc consts  --      1.1528                 1.2467                 1.5342
 IR Inten    --      1.4061                 3.8960                 5.2320

                     43                     44                     45
                      A                      A                      A
 Frequencies --   1380.5041              1396.8192              1404.4875
 Red. masses --      1.2993                 1.5017                 1.2697
 Frc consts  --      1.4590                 1.7263                 1.4756
 IR Inten    --      1.5622                 2.3699                 4.3890

                     46                     47                     48
                      A                      A                      A
 Frequencies --   1412.7896              1432.0693              1475.3197
 Red. masses --      1.3071                 1.4752                 1.0840
 Frc consts  --      1.5372                 1.7825                 1.3901
 IR Inten    --      6.3503                14.6333                 0.3901

                     49                     50                     51
                      A                      A                      A
 Frequencies --   1486.0754              1487.5473              1502.6618
 Red. masses --      1.0803                 1.0888                 1.0933
 Frc consts  --      1.4056                 1.4195                 1.4545
 IR Inten    --      0.6582                 0.1741                 1.5495

                     52                     53                     54
                      A                      A                      A
 Frequencies --   1519.7495              1654.1216              1659.2542
 Red. masses --      1.0933                 1.0927                 1.0889
 Frc consts  --      1.4877                 1.7616                 1.7662
 IR Inten    --      1.0438                18.2450                21.9036

                     55                     56                     57
                      A                      A                      A
 Frequencies --   1672.1199              2929.6881              2990.2085
 Red. masses --      1.0833                 1.0727                 1.0764
 Frc consts  --      1.7845                 5.4248                 5.6705
 IR Inten    --     18.5925                73.2004                 4.0807

                     58                     59                     60
                      A                      A                      A
 Frequencies --   2991.8515              2998.7391              3004.2470
 Red. masses --      1.0617                 1.0621                 1.0691
 Frc consts  --      5.5994                 5.6274                 5.6851
 IR Inten    --      1.0336                 2.8681                 4.8455

                     61                     62                     63
                      A                      A                      A
 Frequencies --   3009.5895              3024.8300              3036.5010
 Red. masses --      1.0677                 1.0958                 1.0829
 Frc consts  --      5.6981                 5.9073                 5.8826
 IR Inten    --    120.2457                 0.3653                45.8377

                     64                     65                     66
                      A                      A                      A
 Frequencies --   3043.8580              3064.0276              3069.3280
 Red. masses --      1.1005                 1.0965                 1.1005
 Frc consts  --      6.0074                 6.0653                 6.1085
 IR Inten    --     13.9933                14.7789               116.9252

                     67                     68                     69
                      A                      A                      A
 Frequencies --   3469.0486              3476.0756              3483.2411
 Red. masses --      1.0489                 1.0511                 1.0496
 Frc consts  --      7.4372                 7.4830                 7.5030
 IR Inten    --      3.2469                 0.6795                 1.2929

                     70                     71                     72
                      A                      A                      A
 Frequencies --   3542.7080              3560.9384              3567.3262
 Red. masses --      1.0909                 1.0917                 1.0897
 Frc consts  --      8.0668                 8.1559                 8.1706
 IR Inten    --      2.5868                 0.2083                 0.2250

 - Thermochemistry -
 -------------------
 Temperature   298.150 Kelvin.  Pressure   1.00000 Atm.
 Atom     1 has atomic number  7 and mass  14.00307

 Molecular mass:   131.14225 amu.
 Principal axes and moments of inertia in atomic units:
                           1         2         3
     Eigenvalues --   321.469823998.263314168.53266
           X            0.99999  -0.00369  -0.00205
           Y            0.00366   0.99987  -0.01568
           Z            0.00211   0.01567   0.99987
 This molecule is an asymmetric top.
 Rotational symmetry number  1.
 Rotational temperatures (Kelvin)      0.26943     0.02166     0.02078
 Rotational constants (GHZ):           5.61403     0.45138     0.43294
 Zero-point vibrational energy     634084.3 (Joules/Mol)
                                  151.54978 (Kcal/Mol)
 Warning -- explicit consideration of  16 degrees of freedom as
           vibrations may cause significant error
 Vibrational temperatures:     72.46    83.01   116.00   171.14   203.08
          (Kelvin)            234.13   293.51   347.25   376.03   395.90
                              431.58   483.29   566.72   655.58   701.79
                              803.99  1066.47  1131.19  1199.64  1227.21
                             1246.13  1297.37  1332.64  1387.79  1405.27
                             1466.54  1488.69  1521.13  1555.31  1572.30
                             1584.52  1631.02  1665.45  1676.17  1779.75
                             1804.03  1850.89  1889.43  1897.35  1910.89
                             1928.47  1970.88  1986.24  2009.71  2020.74
                             2032.69  2060.43  2122.66  2138.13  2140.25
                             2162.00  2186.58  2379.91  2387.30  2405.81
                             4215.17  4302.24  4304.61  4314.52  4322.44
                             4330.13  4352.06  4368.85  4379.43  4408.45
                             4416.08  4991.19  5001.30  5011.61  5097.17
                             5123.40  5132.59

 Zero-point correction=                           0.241510 (Hartree/Particle)
 Thermal correction to Energy=                    0.253464
 Thermal correction to Enthalpy=                  0.254408
 Thermal correction to Gibbs Free Energy=         0.203383
 Sum of electronic and zero-point Energies=           -402.911835
 Sum of electronic and thermal Energies=              -402.899881
 Sum of electronic and thermal Enthalpies=            -402.898937
 Sum of electronic and thermal Free Energies=         -402.949963

                     E (Thermal)             CV                S
                      KCal/Mol        Cal/Mol-Kelvin    Cal/Mol-Kelvin
 Total                  159.051             42.909            107.393
 Electronic               0.000              0.000              0.000
 Translational            0.889              2.981             40.526
 Rotational               0.889              2.981             30.061
 Vibrational            157.274             36.947             36.805
 Vibration     1          0.595              1.977              4.803
 Vibration     2          0.596              1.974              4.534
 Vibration     3          0.600              1.962              3.876
 Vibration     4          0.609              1.934              3.117
 Vibration     5          0.615              1.912              2.788
 Vibration     6          0.623              1.888              2.518
 Vibration     7          0.640              1.834              2.097
 Vibration     8          0.658              1.777              1.793
 Vibration     9          0.669              1.743              1.653
 Vibration    10          0.677              1.719              1.564
 Vibration    11          0.692              1.674              1.417
 Vibration    12          0.717              1.604              1.232
 Vibration    13          0.761              1.483              0.985
 Vibration    14          0.814              1.348              0.779
 Vibration    15          0.844              1.277              0.689
 Vibration    16          0.914              1.120              0.526

 Optimization completed.
    -- Stationary point found.
 Normal termination of Gaussian 16 at Mon May 31 20:13:43 2021.
