 Gaussian 16, Revision A.03,
 Gaussian 16:  ES64L-G16RevA.03 25-Dec-2016

 -----------------------------
 # opt freq b3lyp/6-31g(2df,p)
 -----------------------------

 -------------------
 Title Card Required
 -------------------
 Symbolic Z-matrix:
 Charge =  0 Multiplicity = 1

 SCF Done:  E(RB3LYP) =  -401.901513464     A.U. after   13 cycles
 SCF Done:  E(RB3LYP) =  -401.905336611     A.U. after   10 cycles
 SCF Done:  E(RB3LYP) =  -401.906036675     A.U. after   10 cycles
 SCF Done:  E(RB3LYP) =  -401.906712599     A.U. after   10 cycles
 SCF Done:  E(RB3LYP) =  -401.908120306     A.U. after   12 cycles
 SCF Done:  E(RB3LYP) =  -401.909769533     A.U. after   10 cycles
 SCF Done:  E(RB3LYP) =  -401.909815324     A.U. after   10 cycles
 SCF Done:  E(RB3LYP) =  -401.909893323     A.U. after    9 cycles
 SCF Done:  E(RB3LYP) =  -401.909915186     A.U. after   10 cycles
 SCF Done:  E(RB3LYP) =  -401.910067118     A.U. after   12 cycles
 SCF Done:  E(RB3LYP) =  -401.911954395     A.U. after   12 cycles
 SCF Done:  E(RB3LYP) =  -401.912592211     A.U. after   12 cycles
 SCF Done:  E(RB3LYP) =  -401.912806008     A.U. after   12 cycles
 SCF Done:  E(RB3LYP) =  -401.912800977     A.U. after   11 cycles
 SCF Done:  E(RB3LYP) =  -401.912893012     A.U. after   10 cycles
 SCF Done:  E(RB3LYP) =  -401.912899939     A.U. after   10 cycles
 SCF Done:  E(RB3LYP) =  -401.912900670     A.U. after    7 cycles
 SCF Done:  E(RB3LYP) =  -401.912901036     A.U. after    7 cycles
 SCF Done:  E(RB3LYP) =  -401.912901099     A.U. after    7 cycles
 Optimization completed.
    -- Stationary point found.
 Normal termination of Gaussian 16 at Mon May 31 19:17:33 2021.

 ----------------------------------------------------------------------
 #N Geom=AllCheck Guess=TCheck SCRF=Check GenChk RB3LYP/6-31G(2df,p) Fr
 eq
 ----------------------------------------------------------------------

 Structure from the checkpoint file:  "NCCCCCCdNN.chk"
 -------------------
 Title Card Required
 -------------------
 Charge =  0 Multiplicity = 1

                         Standard orientation:
 ---------------------------------------------------------------------
 Center     Atomic      Atomic             Coordinates (Angstroms)
 Number     Number       Type             X           Y           Z
 ---------------------------------------------------------------------
      1          7           0       -4.787220   -0.622535   -0.156793
      2          6           0       -3.678128    0.337642   -0.151940
      3          6           0       -2.341697   -0.382926    0.027697
      4          6           0       -1.136586    0.561907    0.004592
      5          6           0        0.202553   -0.159244    0.189488
      6          6           0        1.410313    0.794486    0.160285
      7          6           0        2.712913    0.093576    0.402279
      8          7           0        3.640548    0.091038   -0.469946
      9          7           0        4.836242   -0.514858   -0.144585
     10          1           0       -5.665176   -0.135245   -0.309865
     11          1           0       -4.865890   -1.053854    0.760496
     12          1           0       -3.770099    1.122981    0.620203
     13          1           0       -3.682025    0.854886   -1.119885
     14          1           0       -2.245540   -1.140911   -0.758973
     15          1           0       -2.355624   -0.931254    0.981194
     16          1           0       -1.249801    1.322071    0.790311
     17          1           0       -1.122339    1.111348   -0.946898
     18          1           0        0.325432   -0.916559   -0.595275
     19          1           0        0.192753   -0.706524    1.142483
     20          1           0        1.266074    1.568588    0.928754
     21          1           0        1.469498    1.306629   -0.805301
     22          1           0        2.833063   -0.429447    1.364274
     23          1           0        5.277116   -0.856057   -0.988598
     24          1           0        4.749356   -1.264827    0.541945
 ---------------------------------------------------------------------

 SCF Done:  E(RB3LYP) =  -401.912901099     A.U. after    1 cycles

 The electronic state is 1-A.
 Alpha  occ. eigenvalues --  -14.34739 -14.34581 -14.30281 -10.20254 -10.19954
 Alpha  occ. eigenvalues --  -10.18015 -10.17915 -10.17705 -10.17342  -0.97762
 Alpha  occ. eigenvalues --   -0.87299  -0.81562  -0.78581  -0.73429  -0.66652
 Alpha  occ. eigenvalues --   -0.59986  -0.57620  -0.56509  -0.50471  -0.49828
 Alpha  occ. eigenvalues --   -0.48193  -0.46372  -0.44670  -0.41637  -0.40780
 Alpha  occ. eigenvalues --   -0.40096  -0.37021  -0.36942  -0.35445  -0.33468
 Alpha  occ. eigenvalues --   -0.32864  -0.32103  -0.31987  -0.26164  -0.23155
 Alpha  occ. eigenvalues --   -0.22016
 Alpha virt. eigenvalues --    0.01882   0.08481   0.08972   0.09859   0.11371
 Alpha virt. eigenvalues --    0.12761   0.13035   0.13421   0.15677   0.16461
 Alpha virt. eigenvalues --    0.17413   0.18504   0.18760   0.18992   0.20155

 Mulliken charges:
               1
     1  N   -0.509296
     2  C   -0.147116
     3  C   -0.156551
     4  C   -0.175933
     5  C   -0.179067
     6  C   -0.246639
     7  C    0.027875
     8  N   -0.132642
     9  N   -0.425668
    10  H    0.223481
    11  H    0.220248
    12  H    0.074683
    13  H    0.101030
    14  H    0.106541
    15  H    0.084179
    16  H    0.091064
    17  H    0.096464
    18  H    0.102765
    19  H    0.089566
    20  H    0.100376
    21  H    0.113361
    22  H    0.061316
    23  H    0.254444
    24  H    0.225519
 Sum of Mulliken charges =  -0.00000

 Dipole moment (field-independent basis, Debye):
    X=             -0.7425    Y=             -0.8244    Z=              1.5300  Tot=              1.8899
 Quadrupole moment (field-independent basis, Debye-Ang):
   XX=            -54.1508   YY=            -57.0920   ZZ=            -55.9501
   XY=            -12.3637   XZ=             -3.3584   YZ=             -1.4696

  Exact polarizability: 129.314  -7.983  74.556  -5.843  -3.011  75.766
 Approx polarizability: 147.943  -9.696 110.648 -13.402  -4.609 121.768

                      1                      2                      3
                      A                      A                      A
 Frequencies --     41.7418                54.3285                75.9237
 Red. masses --      3.7816                 2.4113                 2.5124
 Frc consts  --      0.0039                 0.0042                 0.0085
 IR Inten    --      0.4708                 2.7005                 3.9819

                      4                      5                      6
                      A                      A                      A
 Frequencies --    103.4052               133.8220               152.0373
 Red. masses --      2.9086                 1.8529                 2.3477
 Frc consts  --      0.0183                 0.0195                 0.0320
 IR Inten    --      5.6237                 1.6794                 0.9490

                      7                      8                      9
                      A                      A                      A
 Frequencies --    180.8554               245.3102               273.3068
 Red. masses --      2.7594                 1.6140                 2.1235
 Frc consts  --      0.0532                 0.0572                 0.0935
 IR Inten    --     10.0065                15.2340                18.5033

                     10                     11                     12
                      A                      A                      A
 Frequencies --    305.6774               323.6329               413.3999
 Red. masses --      2.5424                 2.6739                 1.3272
 Frc consts  --      0.1400                 0.1650                 0.1336
 IR Inten    --      8.8634                27.0789                17.6328

                     13                     14                     15
                      A                      A                      A
 Frequencies --    463.9234               469.7760               596.2142
 Red. masses --      2.9622                 3.8504                 2.6880
 Frc consts  --      0.3756                 0.5007                 0.5630
 IR Inten    --      1.8249                15.7047                 1.0960

                     16                     17                     18
                      A                      A                      A
 Frequencies --    736.3735               754.0537               763.7025
 Red. masses --      1.0768                 1.5837                 1.1373
 Frc consts  --      0.3440                 0.5305                 0.3908
 IR Inten    --      3.2306               303.8272                12.7664

                     19                     20                     21
                      A                      A                      A
 Frequencies --    828.0202               869.6123               922.6311
 Red. masses --      1.2241                 1.3295                 1.4432
 Frc consts  --      0.4945                 0.5924                 0.7238
 IR Inten    --     21.9740                92.4146                29.1104

                     22                     23                     24
                      A                      A                      A
 Frequencies --    955.4869               979.7754              1010.8428
 Red. masses --      1.9467                 1.8578                 2.6070
 Frc consts  --      1.0471                 1.0507                 1.5695
 IR Inten    --      1.4299                 2.4292                 7.2014

                     25                     26                     27
                      A                      A                      A
 Frequencies --   1031.0747              1064.8294              1066.7580
 Red. masses --      2.5359                 2.3865                 1.9151
 Frc consts  --      1.5884                 1.5943                 1.2840
 IR Inten    --      1.3980                 0.4422                 3.1523

                     28                     29                     30
                      A                      A                      A
 Frequencies --   1091.2348              1132.5261              1144.7018
 Red. masses --      2.7288                 2.7233                 1.7425
 Frc consts  --      1.9145                 2.0580                 1.3453
 IR Inten    --      8.6038                33.3255                 2.6020

                     31                     32                     33
                      A                      A                      A
 Frequencies --   1178.9333              1228.0068              1252.3866
 Red. masses --      1.8103                 1.3370                 1.3633
 Frc consts  --      1.4824                 1.1879                 1.2599
 IR Inten    --      7.2701                 5.1931                 4.3015

                     34                     35                     36
                      A                      A                      A
 Frequencies --   1276.4621              1288.8377              1311.8362
 Red. masses --      1.1970                 1.3239                 1.2448
 Frc consts  --      1.1491                 1.2957                 1.2621
 IR Inten    --     10.4138                 0.6082                 1.9705

                     37                     38                     39
                      A                      A                      A
 Frequencies --   1325.3294              1330.0383              1340.6221
 Red. masses --      1.0459                 1.1676                 1.1933
 Frc consts  --      1.0824                 1.2170                 1.2636
 IR Inten    --      0.4964                 0.5039                 1.0195

                     40                     41                     42
                      A                      A                      A
 Frequencies --   1372.9267              1398.8478              1424.9411
 Red. masses --      1.4142                 1.5970                 1.5106
 Frc consts  --      1.5706                 1.8412                 1.8071
 IR Inten    --      1.5733                 0.1105                10.4344

                     43                     44                     45
                      A                      A                      A
 Frequencies --   1432.0926              1472.9773              1484.4040
 Red. masses --      1.4766                 1.0954                 1.0725
 Frc consts  --      1.7842                 1.4003                 1.3923
 IR Inten    --     17.9251                 1.9329                 0.1390

                     46                     47                     48
                      A                      A                      A
 Frequencies --   1491.0412              1506.6012              1520.0207
 Red. masses --      1.0890                 1.0955                 1.0937
 Frc consts  --      1.4265                 1.4650                 1.4888
 IR Inten    --      0.0207                 2.2334                 1.2440

                     49                     50                     51
                      A                      A                      A
 Frequencies --   1657.0511              1659.0170              1730.8161
 Red. masses --      1.1278                 1.0888                 6.2766
 Frc consts  --      1.8245                 1.7656                11.0784
 IR Inten    --     21.8007                21.5575                 2.7657

                     52                     53                     54
                      A                      A                      A
 Frequencies --   2931.7618              2986.9022              2998.7478
 Red. masses --      1.0727                 1.0810                 1.0668
 Frc consts  --      5.4323                 5.6820                 5.6522
 IR Inten    --     72.8970                45.8740                 8.5044

                     55                     56                     57
                      A                      A                      A
 Frequencies --   3000.5179              3003.4712              3012.4237
 Red. masses --      1.0673                 1.0605                 1.0673
 Frc consts  --      5.6612                 5.6365                 5.7062
 IR Inten    --     12.4463                10.5790                65.4974

                     58                     59                     60
                      A                      A                      A
 Frequencies --   3030.4527              3037.2738              3051.4181
 Red. masses --      1.0934                 1.0828                 1.0983
 Frc consts  --      5.9160                 5.8853                 6.0253
 IR Inten    --      9.9730                42.1452                 5.4185

                     61                     62                     63
                      A                      A                      A
 Frequencies --   3068.8965              3086.4997              3425.3158
 Red. masses --      1.1003                 1.0958                 1.0534
 Frc consts  --      6.1058                 6.1504                 7.2817
 IR Inten    --     73.3780                44.8628                 6.7797

                     64                     65                     66
                      A                      A                      A
 Frequencies --   3482.4186              3560.0084              3601.1256
 Red. masses --      1.0496                 1.0916                 1.0887
 Frc consts  --      7.4995                 8.1513                 8.3183
 IR Inten    --      1.4467                 0.2439                10.0457

 - Thermochemistry -
 -------------------
 Temperature   298.150 Kelvin.  Pressure   1.00000 Atm.
 Atom     1 has atomic number  7 and mass  14.00307

 Molecular mass:   129.12660 amu.
 Principal axes and moments of inertia in atomic units:
                           1         2         3
     Eigenvalues --   210.611784887.728564967.19389
           X            0.99998  -0.00595   0.00069
           Y            0.00598   0.99813  -0.06086
           Z           -0.00033   0.06087   0.99815
 This molecule is an asymmetric top.
 Rotational symmetry number  1.
 Rotational temperatures (Kelvin)      0.41125     0.01772     0.01744
 Rotational constants (GHZ):           8.56904     0.36924     0.36333
 Zero-point vibrational energy     569095.9 (Joules/Mol)
                                  136.01718 (Kcal/Mol)
 Warning -- explicit consideration of  15 degrees of freedom as
           vibrations may cause significant error
 Vibrational temperatures:     60.06    78.17   109.24   148.78   192.54
          (Kelvin)            218.75   260.21   352.95   393.23   439.80
                              465.64   594.79   667.48   675.90   857.82
                             1059.48  1084.92  1098.80  1191.34  1251.18
                             1327.46  1374.73  1409.68  1454.38  1483.49
                             1532.05  1534.83  1570.04  1629.45  1646.97
                             1696.22  1766.83  1801.90  1836.54  1854.35
                             1887.44  1906.85  1913.63  1928.86  1975.34
                             2012.63  2050.17  2060.46  2119.29  2135.73
                             2145.28  2167.66  2186.97  2384.13  2386.96
                             2490.26  4218.15  4297.49  4314.53  4317.08
                             4321.33  4334.21  4360.15  4369.96  4390.31
                             4415.46  4440.78  4928.27  5010.42  5122.06
                             5181.22

 Zero-point correction=                           0.216757 (Hartree/Particle)
 Thermal correction to Energy=                    0.228302
 Thermal correction to Enthalpy=                  0.229247
 Thermal correction to Gibbs Free Energy=         0.178510
 Sum of electronic and zero-point Energies=           -401.696144
 Sum of electronic and thermal Energies=              -401.684599
 Sum of electronic and thermal Enthalpies=            -401.683654
 Sum of electronic and thermal Free Energies=         -401.734391

                     E (Thermal)             CV                S
                      KCal/Mol        Cal/Mol-Kelvin    Cal/Mol-Kelvin
 Total                  143.262             40.544            106.784
 Electronic               0.000              0.000              0.000
 Translational            0.889              2.981             40.480
 Rotational               0.889              2.981             30.015
 Vibrational            141.485             34.583             36.289
 Vibration     1          0.594              1.980              5.175
 Vibration     2          0.596              1.976              4.653
 Vibration     3          0.599              1.965              3.994
 Vibration     4          0.605              1.946              3.389
 Vibration     5          0.613              1.920              2.890
 Vibration     6          0.619              1.900              2.647
 Vibration     7          0.630              1.866              2.320
 Vibration     8          0.660              1.771              1.764
 Vibration     9          0.676              1.723              1.575
 Vibration    10          0.696              1.663              1.386
 Vibration    11          0.708              1.628              1.292
 Vibration    12          0.777              1.441              0.915
 Vibration    13          0.821              1.330              0.755
 Vibration    14          0.827              1.317              0.738
 Vibration    15          0.954              1.040              0.456

 Optimization completed.
    -- Stationary point found.
 Normal termination of Gaussian 16 at Mon May 31 19:44:56 2021.
