 Gaussian 16, Revision A.03,
 Gaussian 16:  ES64L-G16RevA.03 25-Dec-2016

 -----------------------------
 # opt freq b3lyp/6-31g(2df,p)
 -----------------------------

 -------------------
 Title Card Required
 -------------------
 Symbolic Z-matrix:
 Charge =  0 Multiplicity = 1

 SCF Done:  E(RB3LYP) =  -528.609949674     A.U. after   13 cycles
 SCF Done:  E(RB3LYP) =  -528.615526399     A.U. after   13 cycles
 SCF Done:  E(RB3LYP) =  -528.619717032     A.U. after   13 cycles
 SCF Done:  E(RB3LYP) =  -528.622383769     A.U. after   13 cycles
 SCF Done:  E(RB3LYP) =  -528.624330513     A.U. after   13 cycles
 SCF Done:  E(RB3LYP) =  -528.625642645     A.U. after   12 cycles
 SCF Done:  E(RB3LYP) =  -528.626049112     A.U. after   12 cycles
 SCF Done:  E(RB3LYP) =  -528.626321733     A.U. after   11 cycles
 SCF Done:  E(RB3LYP) =  -528.626394912     A.U. after   10 cycles
 SCF Done:  E(RB3LYP) =  -528.626417147     A.U. after   10 cycles
 SCF Done:  E(RB3LYP) =  -528.626424691     A.U. after   10 cycles
 SCF Done:  E(RB3LYP) =  -528.626425715     A.U. after    8 cycles
 SCF Done:  E(RB3LYP) =  -528.626425870     A.U. after    7 cycles
 Optimization completed.
    -- Stationary point found.
 Normal termination of Gaussian 16 at Tue Jun  1 07:56:06 2021.

 ----------------------------------------------------------------------
 #N Geom=AllCheck Guess=TCheck SCRF=Check GenChk RB3LYP/6-31G(2df,p) Fr
 eq
 ----------------------------------------------------------------------

 Structure from the checkpoint file:  "NCCCCpNpCNNdNN.chk"
 -------------------
 Title Card Required
 -------------------
 Charge =  0 Multiplicity = 1

                         Standard orientation:
 ---------------------------------------------------------------------
 Center     Atomic      Atomic             Coordinates (Angstroms)
 Number     Number       Type             X           Y           Z
 ---------------------------------------------------------------------
      1          7           0       -5.404231    0.062613   -0.176051
      2          6           0       -4.182328   -0.646863    0.216613
      3          6           0       -2.943413    0.147113   -0.199646
      4          6           0       -1.630855   -0.513559    0.231341
      5          6           0       -0.369931    0.252815   -0.208859
      6          7           0       -0.247163    1.618569    0.327576
      7          6           0        0.898583   -0.518356    0.167752
      8          7           0        2.058963    0.155771   -0.390694
      9          7           0        3.245628   -0.477804   -0.135745
     10          7           0        4.212048    0.307945   -0.076880
     11          7           0        5.403684   -0.351913    0.188690
     12          1           0       -6.219875   -0.449588    0.146311
     13          1           0       -5.473530    0.084477   -1.190110
     14          1           0       -4.107868   -1.671024   -0.191105
     15          1           0       -4.193928   -0.749891    1.309176
     16          1           0       -3.026679    1.154588    0.223789
     17          1           0       -2.946565    0.269097   -1.293022
     18          1           0       -1.585521   -1.532060   -0.177791
     19          1           0       -1.616206   -0.622520    1.325952
     20          1           0       -0.380434    0.351281   -1.302391
     21          1           0       -0.391641    1.607319    1.334992
     22          1           0       -0.966419    2.220860   -0.058491
     23          1           0        0.861207   -1.535066   -0.235342
     24          1           0        0.955408   -0.607256    1.267373
     25          1           0        2.071682    1.152702   -0.180362
     26          1           0        6.147924    0.128660   -0.302014
     27          1           0        5.357586   -1.334751   -0.078431
 ---------------------------------------------------------------------

 SCF Done:  E(RB3LYP) =  -528.626425870     A.U. after    1 cycles

 The electronic state is 1-A.
 Alpha  occ. eigenvalues --  -14.37348 -14.37200 -14.34317 -14.34108 -14.31526
 Alpha  occ. eigenvalues --  -14.30830 -10.21436 -10.20629 -10.20551 -10.18302
 Alpha  occ. eigenvalues --  -10.18181  -1.05995  -0.93592  -0.89063  -0.87833
 Alpha  occ. eigenvalues --   -0.81963  -0.77707  -0.71896  -0.65981  -0.60584
 Alpha  occ. eigenvalues --   -0.59356  -0.58100  -0.53307  -0.51052  -0.49054
 Alpha  occ. eigenvalues --   -0.48435  -0.46298  -0.45529  -0.45000  -0.42710
 Alpha  occ. eigenvalues --   -0.41357  -0.41263  -0.38510  -0.38339  -0.36216
 Alpha  occ. eigenvalues --   -0.35298  -0.34361  -0.33378  -0.33200  -0.29047
 Alpha  occ. eigenvalues --   -0.24833  -0.23798  -0.23682  -0.19700
 Alpha virt. eigenvalues --    0.00628   0.07039   0.08102   0.09939   0.10372
 Alpha virt. eigenvalues --    0.10950   0.12387   0.13893   0.14554   0.15032
 Alpha virt. eigenvalues --    0.16034   0.16410   0.17820   0.18281   0.18524

 Mulliken charges:
               1
     1  N   -0.509954
     2  C   -0.148678
     3  C   -0.166847
     4  C   -0.188964
     5  C   -0.001429
     6  N   -0.516623
     7  C   -0.100171
     8  N   -0.232184
     9  N   -0.088052
    10  N   -0.108492
    11  N   -0.407628
    12  H    0.225476
    13  H    0.222054
    14  H    0.078383
    15  H    0.101797
    16  H    0.099335
    17  H    0.088112
    18  H    0.095285
    19  H    0.089607
    20  H    0.090717
    21  H    0.224561
    22  H    0.235353
    23  H    0.112158
    24  H    0.085634
    25  H    0.238410
    26  H    0.250827
    27  H    0.231313
 Sum of Mulliken charges =  -0.00000

 Dipole moment (field-independent basis, Debye):
    X=             -2.1829    Y=             -1.2447    Z=             -0.6091  Tot=              2.5856
 Quadrupole moment (field-independent basis, Debye-Ang):
   XX=            -60.5163   YY=            -68.2296   ZZ=            -66.9738
   XY=              2.0656   XZ=             -2.1437   YZ=              0.8178

  Exact polarizability: 161.786  -1.813  87.080   2.170  -1.331  76.811
 Approx polarizability: 188.537   1.823 133.195   7.427  -1.219 122.626

                      1                      2                      3
                      A                      A                      A
 Frequencies --     33.4361                54.9042                70.1301
 Red. masses --      4.3376                 4.8513                 1.9038
 Frc consts  --      0.0029                 0.0086                 0.0055
 IR Inten    --      0.0551                 0.4237                 3.3054

                      4                      5                      6
                      A                      A                      A
 Frequencies --     79.1473               121.7702               140.5776
 Red. masses --      3.3762                 2.9494                 3.6446
 Frc consts  --      0.0125                 0.0258                 0.0424
 IR Inten    --      2.7870                 4.8446                 4.1274

                      7                      8                      9
                      A                      A                      A
 Frequencies --    149.5892               180.7857               237.4606
 Red. masses --      2.3658                 2.3577                 3.1797
 Frc consts  --      0.0312                 0.0454                 0.1056
 IR Inten    --      3.2754                17.1465                 7.0511

                     10                     11                     12
                      A                      A                      A
 Frequencies --    251.2261               274.1556               277.8370
 Red. masses --      1.6668                 1.3187                 1.9078
 Frc consts  --      0.0620                 0.0584                 0.0868
 IR Inten    --     32.1257                16.3552                 6.1122

                     13                     14                     15
                      A                      A                      A
 Frequencies --    315.9625               368.9442               402.4773
 Red. masses --      2.5654                 3.3147                 1.5501
 Frc consts  --      0.1509                 0.2658                 0.1479
 IR Inten    --     11.1320                30.5647                66.0460

                     16                     17                     18
                      A                      A                      A
 Frequencies --    441.1262               452.0038               509.7816
 Red. masses --      2.2626                 3.3655                 3.0558
 Frc consts  --      0.2594                 0.4051                 0.4679
 IR Inten    --      3.8954                40.3873                 7.8208

                     19                     20                     21
                      A                      A                      A
 Frequencies --    549.4338               670.9617               754.6601
 Red. masses --      2.8127                 4.2106                 1.1146
 Frc consts  --      0.5003                 1.1168                 0.3740
 IR Inten    --     31.1174                 4.9588                 4.8966

                     22                     23                     24
                      A                      A                      A
 Frequencies --    780.0461               824.1237               833.9630
 Red. masses --      1.6071                 1.3993                 1.2147
 Frc consts  --      0.5761                 0.5600                 0.4978
 IR Inten    --    354.7243               122.8355                33.9527

                     25                     26                     27
                      A                      A                      A
 Frequencies --    854.9497               881.1901               920.2746
 Red. masses --      2.4477                 1.3190                 1.6238
 Frc consts  --      1.0541                 0.6034                 0.8103
 IR Inten    --     75.8746               121.0237                31.0128

                     28                     29                     30
                      A                      A                      A
 Frequencies --    956.8654               999.2778              1014.9309
 Red. masses --      1.7413                 1.7709                 2.1410
 Frc consts  --      0.9393                 1.0418                 1.2994
 IR Inten    --      8.6248                 9.4263                 7.5565

                     31                     32                     33
                      A                      A                      A
 Frequencies --   1044.9904              1079.3472              1090.8808
 Red. masses --      2.0504                 2.6059                 2.3817
 Frc consts  --      1.3192                 1.7887                 1.6699
 IR Inten    --      6.0899                 5.9066                 3.6488

                     34                     35                     36
                      A                      A                      A
 Frequencies --   1119.5735              1140.1830              1156.7630
 Red. masses --      2.4347                 1.5189                 2.1099
 Frc consts  --      1.7981                 1.1634                 1.6634
 IR Inten    --     11.3626                 3.1707                83.0851

                     37                     38                     39
                      A                      A                      A
 Frequencies --   1170.8757              1183.5661              1229.0667
 Red. masses --      1.8831                 2.6843                 1.5338
 Frc consts  --      1.5210                 2.2155                 1.3651
 IR Inten    --     75.1530                33.5599                 2.9807

                     40                     41                     42
                      A                      A                      A
 Frequencies --   1255.8201              1269.4502              1295.8057
 Red. masses --      1.4016                 1.4191                 1.2389
 Frc consts  --      1.3024                 1.3474                 1.2257
 IR Inten    --      5.9421                 5.2728                 0.5410

                     43                     44                     45
                      A                      A                      A
 Frequencies --   1330.2301              1335.0797              1341.2753
 Red. masses --      1.1103                 1.3800                 1.4279
 Frc consts  --      1.1575                 1.4493                 1.5135
 IR Inten    --      1.3287                 3.9205                 3.0088

                     46                     47                     48
                      A                      A                      A
 Frequencies --   1344.3869              1382.6436              1391.6092
 Red. masses --      1.5418                 1.3785                 1.5087
 Frc consts  --      1.6419                 1.5526                 1.7215
 IR Inten    --      1.7326                 0.3558                 3.2730

                     49                     50                     51
                      A                      A                      A
 Frequencies --   1422.3415              1431.0229              1469.5394
 Red. masses --      1.3582                 1.4671                 1.3594
 Frc consts  --      1.6189                 1.7702                 1.7297
 IR Inten    --      6.9431                23.3143                63.8090

                     52                     53                     54
                      A                      A                      A
 Frequencies --   1480.0476              1496.0908              1511.1151
 Red. masses --      1.0838                 1.0867                 1.0908
 Frc consts  --      1.3988                 1.4331                 1.4676
 IR Inten    --      1.5443                 1.0519                23.8310

                     55                     56                     57
                      A                      A                      A
 Frequencies --   1518.7512              1603.6093              1635.1149
 Red. masses --      1.0930                 3.6756                 1.3077
 Frc consts  --      1.4854                 5.5690                 2.0600
 IR Inten    --      0.4476                 4.5909                24.1531

                     58                     59                     60
                      A                      A                      A
 Frequencies --   1654.8464              1659.8278              2935.8914
 Red. masses --      1.0937                 1.0888                 1.0725
 Frc consts  --      1.7646                 1.7673                 5.4467
 IR Inten    --     19.3595                21.8047                67.8987

                     61                     62                     63
                      A                      A                      A
 Frequencies --   2943.1213              2995.6875              3002.7194
 Red. masses --      1.0722                 1.0629                 1.0659
 Frc consts  --      5.4722                 5.6201                 5.6626
 IR Inten    --     62.5641                 3.2222                33.8718

                     64                     65                     66
                      A                      A                      A
 Frequencies --   3024.6744              3038.3730              3040.2743
 Red. masses --      1.0853                 1.0838                 1.0940
 Frc consts  --      5.8502                 5.8949                 5.9580
 IR Inten    --     15.1147                38.2077                22.6925

                     67                     68                     69
                      A                      A                      A
 Frequencies --   3069.2617              3078.3728              3445.0433
 Red. masses --      1.0980                 1.0895                 1.0496
 Frc consts  --      6.0941                 6.0832                 7.3393
 IR Inten    --     44.7307                49.6779                 1.5632

                     70                     71                     72
                      A                      A                      A
 Frequencies --   3478.5681              3480.1101              3483.7956
 Red. masses --      1.0733                 1.0513                 1.0497
 Frc consts  --      7.6519                 7.5020                 7.5060
 IR Inten    --     15.3493                 0.4352                 1.0401

                     73                     74                     75
                      A                      A                      A
 Frequencies --   3561.3678              3572.6347              3598.9782
 Red. masses --      1.0916                 1.0898                 1.0928
 Frc consts  --      8.1574                 8.1956                 8.3393
 IR Inten    --      0.1613                 0.7071                10.6294

 - Thermochemistry -
 -------------------
 Temperature   298.150 Kelvin.  Pressure   1.00000 Atm.
 Atom     1 has atomic number  7 and mass  14.00307

 Molecular mass:   160.14364 amu.
 Principal axes and moments of inertia in atomic units:
                           1         2         3
     Eigenvalues --   345.108906608.231596813.93263
           X            1.00000   0.00162   0.00026
           Y           -0.00162   0.99997  -0.00809
           Z           -0.00027   0.00809   0.99997
 This molecule is an asymmetric top.
 Rotational symmetry number  1.
 Rotational temperatures (Kelvin)      0.25098     0.01311     0.01271
 Rotational constants (GHZ):           5.22948     0.27311     0.26486
 Zero-point vibrational energy     629204.2 (Joules/Mol)
                                  150.38340 (Kcal/Mol)
 Warning -- explicit consideration of  19 degrees of freedom as
           vibrations may cause significant error
 Vibrational temperatures:     48.11    78.99   100.90   113.88   175.20
          (Kelvin)            202.26   215.23   260.11   341.65   361.46
                              394.45   399.75   454.60   530.83   579.08
                              634.68   650.33   733.46   790.51   965.36
                             1085.79  1122.31  1185.73  1199.89  1230.08
                             1267.84  1324.07  1376.72  1437.74  1460.26
                             1503.51  1552.94  1569.53  1610.82  1640.47
                             1664.32  1684.63  1702.89  1768.35  1806.85
                             1826.46  1864.38  1913.90  1920.88  1929.80
                             1934.27  1989.32  2002.22  2046.43  2058.92
                             2114.34  2129.46  2152.54  2174.16  2185.14
                             2307.24  2352.57  2380.95  2388.12  4224.09
                             4234.50  4310.13  4320.24  4351.83  4371.54
                             4374.28  4415.98  4429.09  4956.65  5004.88
                             5007.10  5012.40  5124.01  5140.22  5178.13

 Zero-point correction=                           0.239651 (Hartree/Particle)
 Thermal correction to Energy=                    0.253287
 Thermal correction to Enthalpy=                  0.254231
 Thermal correction to Gibbs Free Energy=         0.198641
 Sum of electronic and zero-point Energies=           -528.386775
 Sum of electronic and thermal Energies=              -528.373139
 Sum of electronic and thermal Enthalpies=            -528.372195
 Sum of electronic and thermal Free Energies=         -528.427785

                     E (Thermal)             CV                S
                      KCal/Mol        Cal/Mol-Kelvin    Cal/Mol-Kelvin
 Total                  158.940             48.709            117.000
 Electronic               0.000              0.000              0.000
 Translational            0.889              2.981             41.122
 Rotational               0.889              2.981             31.119
 Vibrational            157.163             42.747             44.759
 Vibration     1          0.594              1.983              5.614
 Vibration     2          0.596              1.976              4.632
 Vibration     3          0.598              1.968              4.150
 Vibration     4          0.600              1.963              3.912
 Vibration     5          0.609              1.931              3.072
 Vibration     6          0.615              1.913              2.796
 Vibration     7          0.618              1.903              2.677
 Vibration     8          0.630              1.866              2.320
 Vibration     9          0.656              1.783              1.822
 Vibration    10          0.663              1.761              1.722
 Vibration    11          0.676              1.721              1.570
 Vibration    12          0.679              1.714              1.547
 Vibration    13          0.703              1.643              1.331
 Vibration    14          0.741              1.536              1.084
 Vibration    15          0.768              1.465              0.954
 Vibration    16          0.801              1.380              0.823
 Vibration    17          0.811              1.356              0.790
 Vibration    18          0.865              1.228              0.634
 Vibration    19          0.905              1.141              0.545

                           ! Non-Optimized Parameters !
 Normal termination of Gaussian 16 at Tue Jun  1 08:44:55 2021.
