 Gaussian 16, Revision A.03,
 Gaussian 16:  ES64L-G16RevA.03 25-Dec-2016

 -----------------------------
 # opt freq b3lyp/6-31g(2df,p)
 -----------------------------

 -------------------
 Title Card Required
 -------------------
 Symbolic Z-matrix:
 Charge =  0 Multiplicity = 1

 SCF Done:  E(RB3LYP) =  -432.672909714     A.U. after   13 cycles
 SCF Done:  E(RB3LYP) =  -432.694959488     A.U. after   12 cycles
 SCF Done:  E(RB3LYP) =  -432.700896415     A.U. after   12 cycles
 SCF Done:  E(RB3LYP) =  -432.702111672     A.U. after   12 cycles
 SCF Done:  E(RB3LYP) =  -432.702371516     A.U. after   11 cycles
 SCF Done:  E(RB3LYP) =  -432.702447814     A.U. after   11 cycles
 SCF Done:  E(RB3LYP) =  -432.702474788     A.U. after   10 cycles
 SCF Done:  E(RB3LYP) =  -432.702488024     A.U. after   10 cycles
 SCF Done:  E(RB3LYP) =  -432.702495285     A.U. after   10 cycles
 SCF Done:  E(RB3LYP) =  -432.702499875     A.U. after   10 cycles
 SCF Done:  E(RB3LYP) =  -432.702500385     A.U. after    8 cycles
 SCF Done:  E(RB3LYP) =  -432.702500488     A.U. after    7 cycles
 SCF Done:  E(RB3LYP) =  -432.702500539     A.U. after    7 cycles
 Optimization completed.
    -- Stationary point found.
 Normal termination of Gaussian 16 at Mon May 31 12:40:20 2021.

 ----------------------------------------------------------------------
 #N Geom=AllCheck Guess=TCheck SCRF=Check GenChk RB3LYP/6-31G(2df,p) Fr
 eq
 ----------------------------------------------------------------------

 Structure from the checkpoint file:  "NCCNCpNpC1dNN1.chk"
 -------------------
 Title Card Required
 -------------------
 Charge =  0 Multiplicity = 1

                         Standard orientation:
 ---------------------------------------------------------------------
 Center     Atomic      Atomic             Coordinates (Angstroms)
 Number     Number       Type             X           Y           Z
 ---------------------------------------------------------------------
      1          7           0        3.946308   -0.114172    0.083937
      2          6           0        2.637209   -0.607365   -0.345805
      3          6           0        1.532442    0.269577    0.240144
      4          7           0        0.216631   -0.193381   -0.191812
      5          6           0       -0.896999    0.589220    0.349522
      6          7           0       -1.063932    1.909492   -0.218880
      7          6           0       -2.139165   -0.207242    0.117024
      8          7           0       -3.349598   -0.139409   -0.140931
      9          7           0       -2.532270   -1.565866    0.155772
     10          1           0        4.682340   -0.613311   -0.404783
     11          1           0        4.083460   -0.307692    1.071941
     12          1           0        2.440315   -1.661355   -0.075562
     13          1           0        2.585667   -0.550334   -1.438155
     14          1           0        1.684322    1.295432   -0.110472
     15          1           0        1.628402    0.295154    1.343731
     16          1           0        0.092833   -1.164633    0.084670
     17          1           0       -0.814136    0.725987    1.445853
     18          1           0       -0.992904    1.857970   -1.230987
     19          1           0       -0.340675    2.537192    0.112233
     20          1           0       -2.370529   -1.956197   -0.780389
 ---------------------------------------------------------------------

 SCF Done:  E(RB3LYP) =  -432.702500539     A.U. after    1 cycles

 The electronic state is 1-A.
 Alpha  occ. eigenvalues --  -14.36299 -14.35688 -14.33342 -14.32996 -14.31871
 Alpha  occ. eigenvalues --  -10.27277 -10.26397 -10.21766 -10.21700  -1.02267
 Alpha  occ. eigenvalues --   -0.94755  -0.89248  -0.86961  -0.74858  -0.74295
 Alpha  occ. eigenvalues --   -0.67541  -0.61312  -0.54968  -0.52798  -0.51073
 Alpha  occ. eigenvalues --   -0.49630  -0.47614  -0.45910  -0.44713  -0.43392
 Alpha  occ. eigenvalues --   -0.40997  -0.39110  -0.37136  -0.36085  -0.35045
 Alpha  occ. eigenvalues --   -0.30372  -0.26902  -0.25291  -0.24804  -0.24416
 Alpha virt. eigenvalues --   -0.00872   0.01389   0.06885   0.07382   0.08424
 Alpha virt. eigenvalues --    0.10689   0.11569   0.13148   0.13708   0.15554
 Alpha virt. eigenvalues --    0.16295   0.17484   0.18736   0.20317   0.20997

 Mulliken charges:
               1
     1  N   -0.507634
     2  C   -0.169456
     3  C   -0.104109
     4  N   -0.322861
     5  C   -0.109859
     6  N   -0.486397
     7  C    0.452659
     8  N   -0.245037
     9  N   -0.410648
    10  H    0.231747
    11  H    0.226865
    12  H    0.078593
    13  H    0.118282
    14  H    0.112179
    15  H    0.076752
    16  H    0.225234
    17  H    0.106363
    18  H    0.239005
    19  H    0.241902
    20  H    0.246421
 Sum of Mulliken charges =  -0.00000

 Dipole moment (field-independent basis, Debye):
    X=              4.7582    Y=             -0.4451    Z=             -0.1710  Tot=              4.7820
 Quadrupole moment (field-independent basis, Debye-Ang):
   XX=            -67.9821   YY=            -53.7502   ZZ=            -51.6188
   XY=             -5.3018   XZ=              3.6587   YZ=              1.7714

  Exact polarizability:  95.185   0.071  76.441   2.533   1.469  61.922
 Approx polarizability: 123.952  -6.777 121.779   6.345  -0.280  97.079

                      1                      2                      3
                      A                      A                      A
 Frequencies --     55.7513                68.3373                79.5241
 Red. masses --      5.5314                 1.9195                 4.3831
 Frc consts  --      0.0101                 0.0053                 0.0163
 IR Inten    --      5.2958                 4.7599                 1.2637

                      4                      5                      6
                      A                      A                      A
 Frequencies --     98.8632               156.3530               186.9463
 Red. masses --      4.0390                 2.6863                 4.0778
 Frc consts  --      0.0233                 0.0387                 0.0840
 IR Inten    --      1.9157                 0.3945                 3.3528

                      7                      8                      9
                      A                      A                      A
 Frequencies --    227.2571               248.2920               318.9143
 Red. masses --      1.8884                 1.1345                 1.5277
 Frc consts  --      0.0575                 0.0412                 0.0915
 IR Inten    --      1.7987                41.8525                32.8827

                     10                     11                     12
                      A                      A                      A
 Frequencies --    331.8919               402.6692               416.1094
 Red. masses --      4.2075                 5.0390                 3.8480
 Frc consts  --      0.2731                 0.4814                 0.3926
 IR Inten    --      3.8920                13.6882                14.1698

                     13                     14                     15
                      A                      A                      A
 Frequencies --    503.4520               579.7662               639.0318
 Red. masses --      3.2387                 4.0168                 5.0935
 Frc consts  --      0.4837                 0.7955                 1.2255
 IR Inten    --     27.1286                47.5006                 0.6380

                     16                     17                     18
                      A                      A                      A
 Frequencies --    787.7503               806.8323               818.3206
 Red. masses --      1.3131                 1.4463                 1.4048
 Frc consts  --      0.4801                 0.5547                 0.5543
 IR Inten    --     47.6942               123.1772                62.4882

                     19                     20                     21
                      A                      A                      A
 Frequencies --    846.6547               873.3086               990.6047
 Red. masses --      2.4985                 1.3526                 1.7873
 Frc consts  --      1.0552                 0.6078                 1.0334
 IR Inten    --     60.6498                80.0796                 1.4422

                     22                     23                     24
                      A                      A                      A
 Frequencies --   1021.1939              1028.5338              1078.6781
 Red. masses --      2.1125                 1.7439                 2.4378
 Frc consts  --      1.2980                 1.0870                 1.6712
 IR Inten    --     19.1885                50.1452                31.2031

                     25                     26                     27
                      A                      A                      A
 Frequencies --   1104.0778              1122.0222              1142.0610
 Red. masses --      2.4278                 2.4582                 4.6979
 Frc consts  --      1.7437                 1.8234                 3.6102
 IR Inten    --     34.2439                25.1008                94.0278

                     28                     29                     30
                      A                      A                      A
 Frequencies --   1166.7514              1178.9707              1237.4250
 Red. masses --      1.5186                 1.3314                 1.8942
 Frc consts  --      1.2180                 1.0904                 1.7089
 IR Inten    --      1.7989                16.8043                 5.2096

                     31                     32                     33
                      A                      A                      A
 Frequencies --   1282.7046              1309.7305              1330.9852
 Red. masses --      1.3046                 1.2013                 1.1441
 Frc consts  --      1.2647                 1.2142                 1.1941
 IR Inten    --      5.7885                39.4506                 0.5691

                     34                     35                     36
                      A                      A                      A
 Frequencies --   1364.6203              1375.3677              1414.6698
 Red. masses --      1.2740                 1.3316                 1.3848
 Frc consts  --      1.3978                 1.4841                 1.6329
 IR Inten    --      8.2760                 2.4817                12.3454

                     37                     38                     39
                      A                      A                      A
 Frequencies --   1436.6538              1494.9112              1507.7204
 Red. masses --      1.5280                 1.3008                 1.0983
 Frc consts  --      1.8582                 1.7128                 1.4710
 IR Inten    --     12.4769                38.7027                 9.0717

                     40                     41                     42
                      A                      A                      A
 Frequencies --   1521.1539              1661.2937              1661.5908
 Red. masses --      1.0909                 1.0935                 1.0924
 Frc consts  --      1.4872                 1.7781                 1.7769
 IR Inten    --      4.9607                29.0607                11.3826

                     43                     44                     45
                      A                      A                      A
 Frequencies --   1911.0052              2908.2307              2913.0922
 Red. masses --     12.2330                 1.0733                 1.0788
 Frc consts  --     26.3212                 5.3483                 5.3941
 IR Inten    --     14.0625                74.9125                47.3870

                     46                     47                     48
                      A                      A                      A
 Frequencies --   2927.6075              3065.0782              3077.8590
 Red. masses --      1.0725                 1.0830                 1.0906
 Frc consts  --      5.4158                 5.9947                 6.0874
 IR Inten    --     65.9410                15.6229                36.1449

                     49                     50                     51
                      A                      A                      A
 Frequencies --   3360.4089              3489.7867              3494.1160
 Red. masses --      1.0761                 1.0728                 1.0501
 Frc consts  --      7.1596                 7.6975                 7.5537
 IR Inten    --      2.0678                 0.2707                 0.2866

                     52                     53                     54
                      A                      A                      A
 Frequencies --   3507.0569              3572.9260              3598.5446
 Red. masses --      1.0492                 1.0916                 1.0928
 Frc consts  --      7.6030                 8.2106                 8.3379
 IR Inten    --      1.8252                 0.3074                 3.8340

 - Thermochemistry -
 -------------------
 Temperature   298.150 Kelvin.  Pressure   1.00000 Atm.
 Atom     1 has atomic number  7 and mass  14.00307

 Molecular mass:   129.10145 amu.
 Principal axes and moments of inertia in atomic units:
                           1         2         3
     Eigenvalues --   473.249822629.347922994.45334
           X            0.99995  -0.00939   0.00332
           Y            0.00933   0.99984   0.01501
           Z           -0.00346  -0.01498   0.99988
 This molecule is an asymmetric top.
 Rotational symmetry number  1.
 Warning -- assumption of classical behavior for rotation
           may cause significant error
 Rotational temperatures (Kelvin)      0.18302     0.03294     0.02892
 Rotational constants (GHZ):           3.81351     0.68638     0.60269
 Zero-point vibrational energy     446825.9 (Joules/Mol)
                                  106.79395 (Kcal/Mol)
 Warning -- explicit consideration of  14 degrees of freedom as
           vibrations may cause significant error
 Vibrational temperatures:     80.21    98.32   114.42   142.24   224.96
          (Kelvin)            268.97   326.97   357.24   458.85   477.52
                              579.35   598.69   724.36   834.15   919.42
                             1133.40  1160.85  1177.38  1218.15  1256.50
                             1425.26  1469.27  1479.83  1551.98  1588.52
                             1614.34  1643.17  1678.69  1696.28  1780.38
                             1845.53  1884.41  1914.99  1963.38  1978.85
                             2035.39  2067.02  2150.84  2169.27  2188.60
                             2390.23  2390.66  2749.51  4184.30  4191.29
                             4212.17  4409.96  4428.35  4834.88  5021.02
                             5027.25  5045.87  5140.64  5177.50

 Zero-point correction=                           0.170187 (Hartree/Particle)
 Thermal correction to Energy=                    0.180978
 Thermal correction to Enthalpy=                  0.181922
 Thermal correction to Gibbs Free Energy=         0.133184
 Sum of electronic and zero-point Energies=           -432.532314
 Sum of electronic and thermal Energies=              -432.521522
 Sum of electronic and thermal Enthalpies=            -432.520578
 Sum of electronic and thermal Free Energies=         -432.569316

                     E (Thermal)             CV                S
                      KCal/Mol        Cal/Mol-Kelvin    Cal/Mol-Kelvin
 Total                  113.565             37.583            102.578
 Electronic               0.000              0.000              0.000
 Translational            0.889              2.981             40.479
 Rotational               0.889              2.981             29.701
 Vibrational            111.788             31.622             32.398
 Vibration     1          0.596              1.975              4.602
 Vibration     2          0.598              1.969              4.201
 Vibration     3          0.600              1.963              3.903
 Vibration     4          0.604              1.950              3.477
 Vibration     5          0.620              1.896              2.593
 Vibration     6          0.632              1.858              2.258
 Vibration     7          0.651              1.799              1.901
 Vibration     8          0.662              1.766              1.743
 Vibration     9          0.705              1.637              1.316
 Vibration    10          0.714              1.612              1.251
 Vibration    11          0.768              1.464              0.953
 Vibration    12          0.779              1.435              0.905
 Vibration    13          0.859              1.242              0.650
 Vibration    14          0.936              1.075              0.486

 Optimization completed.
    -- Stationary point found.
 Normal termination of Gaussian 16 at Mon May 31 13:14:45 2021.
