 Gaussian 16, Revision A.03,
 Gaussian 16:  ES64L-G16RevA.03 25-Dec-2016

 -----------------------------
 # opt freq b3lyp/6-31g(2df,p)
 -----------------------------

 -------------------
 Title Card Required
 -------------------
 Symbolic Z-matrix:
 Charge =  0 Multiplicity = 1

 SCF Done:  E(RB3LYP) =  -435.171779352     A.U. after   12 cycles
 SCF Done:  E(RB3LYP) =  -435.183734131     A.U. after   11 cycles
 SCF Done:  E(RB3LYP) =  -435.186863057     A.U. after   11 cycles
 SCF Done:  E(RB3LYP) =  -435.188735997     A.U. after   11 cycles
 SCF Done:  E(RB3LYP) =  -435.189309142     A.U. after   10 cycles
 SCF Done:  E(RB3LYP) =  -435.189386001     A.U. after   10 cycles
 SCF Done:  E(RB3LYP) =  -435.189460183     A.U. after    9 cycles
 SCF Done:  E(RB3LYP) =  -435.189476115     A.U. after    8 cycles
 SCF Done:  E(RB3LYP) =  -435.189480613     A.U. after    8 cycles
 SCF Done:  E(RB3LYP) =  -435.189481938     A.U. after    7 cycles
 SCF Done:  E(RB3LYP) =  -435.189482287     A.U. after    6 cycles
 Optimization completed.
    -- Stationary point found.
 Normal termination of Gaussian 16 at Mon May 31 23:57:20 2021.

 ----------------------------------------------------------------------
 #N Geom=AllCheck Guess=TCheck SCRF=Check GenChk RB3LYP/6-31G(2df,p) Fr
 eq
 ----------------------------------------------------------------------

 Structure from the checkpoint file:  "NCCpNpCpCNpNN.chk"
 -------------------
 Title Card Required
 -------------------
 Charge =  0 Multiplicity = 1

                         Standard orientation:
 ---------------------------------------------------------------------
 Center     Atomic      Atomic             Coordinates (Angstroms)
 Number     Number       Type             X           Y           Z
 ---------------------------------------------------------------------
      1          7           0        3.165019   -0.103065   -0.197050
      2          6           0        1.863077    0.469570    0.190024
      3          6           0        0.747666   -0.504260   -0.227326
      4          7           0        0.932857   -1.850262    0.342843
      5          6           0       -0.684522   -0.028416    0.089766
      6          6           0       -1.037680    1.355552   -0.481465
      7          7           0       -0.560226    2.444359    0.379492
      8          7           0       -1.607410   -1.028470   -0.455582
      9          7           0       -2.901629   -1.066567    0.139944
     10          1           0        3.915260    0.423508    0.238954
     11          1           0        3.297346    0.005797   -1.199310
     12          1           0        1.675820    1.470561   -0.216409
     13          1           0        1.853217    0.573975    1.282410
     14          1           0        0.799095   -0.624343   -1.320543
     15          1           0        0.871803   -1.779678    1.358162
     16          1           0        1.896501   -2.120105    0.156070
     17          1           0       -0.784247    0.031920    1.197417
     18          1           0       -2.126569    1.379809   -0.645973
     19          1           0       -0.574441    1.466940   -1.469005
     20          1           0       -1.064109    2.426005    1.261959
     21          1           0       -0.775469    3.340046   -0.047665
     22          1           0       -1.184809   -1.940866   -0.317207
     23          1           0       -3.477910   -0.359314   -0.305760
     24          1           0       -2.853010   -0.820904    1.133367
 ---------------------------------------------------------------------

 SCF Done:  E(RB3LYP) =  -435.189482287     A.U. after    1 cycles

 The electronic state is 1-A.
 Alpha  occ. eigenvalues --  -14.32341 -14.31732 -14.31143 -14.30823 -14.29842
 Alpha  occ. eigenvalues --  -10.20294 -10.20176 -10.20151 -10.19352  -0.94625
 Alpha  occ. eigenvalues --   -0.89234  -0.87799  -0.85457  -0.77539  -0.70397
 Alpha  occ. eigenvalues --   -0.66966  -0.60589  -0.56927  -0.50221  -0.48887
 Alpha  occ. eigenvalues --   -0.47931  -0.47369  -0.45827  -0.45249  -0.43249
 Alpha  occ. eigenvalues --   -0.41634  -0.40589  -0.39188  -0.38363  -0.34981
 Alpha  occ. eigenvalues --   -0.33957  -0.32471  -0.25112  -0.24234  -0.23542
 Alpha  occ. eigenvalues --   -0.22582  -0.21531
 Alpha virt. eigenvalues --    0.07398   0.08169   0.09054   0.10079   0.12040
 Alpha virt. eigenvalues --    0.13015   0.14758   0.15090   0.16268   0.16781
 Alpha virt. eigenvalues --    0.17212   0.19165   0.19479   0.20708   0.21877

 Mulliken charges:
               1
     1  N   -0.517127
     2  C   -0.169211
     3  C    0.030318
     4  N   -0.521411
     5  C    0.077652
     6  C   -0.159681
     7  N   -0.509775
     8  N   -0.287765
     9  N   -0.471757
    10  H    0.228223
    11  H    0.224191
    12  H    0.106335
    13  H    0.089543
    14  H    0.082185
    15  H    0.214713
    16  H    0.238583
    17  H    0.028851
    18  H    0.072924
    19  H    0.105203
    20  H    0.221866
    21  H    0.226888
    22  H    0.247308
    23  H    0.235492
    24  H    0.206450
 Sum of Mulliken charges =  -0.00000

 Dipole moment (field-independent basis, Debye):
    X=              0.8696    Y=              3.2517    Z=              1.0834  Tot=              3.5360
 Quadrupole moment (field-independent basis, Debye-Ang):
   XX=            -53.9087   YY=            -59.0719   ZZ=            -53.5054
   XY=             -5.5971   XZ=             -4.1158   YZ=             -2.3593

  Exact polarizability:  95.216  -0.112  81.680  -1.970  -0.300  71.787
 Approx polarizability: 118.685  -0.146 111.508  -2.804   0.684 115.494

                      1                      2                      3
                      A                      A                      A
 Frequencies --     60.5866               109.1682               115.8103
 Red. masses --      3.4186                 2.4391                 2.7237
 Frc consts  --      0.0074                 0.0171                 0.0215
 IR Inten    --      1.6010                 1.4157                 4.2768

                      4                      5                      6
                      A                      A                      A
 Frequencies --    148.3587               177.5305               227.0711
 Red. masses --      2.7276                 3.2665                 1.2202
 Frc consts  --      0.0354                 0.0607                 0.0371
 IR Inten    --      2.1875                 1.0894                25.1871

                      7                      8                      9
                      A                      A                      A
 Frequencies --    243.4801               269.5592               289.3424
 Red. masses --      1.0995                 2.4010                 1.7510
 Frc consts  --      0.0384                 0.1028                 0.0864
 IR Inten    --     31.0104                 8.0734                11.1055

                     10                     11                     12
                      A                      A                      A
 Frequencies --    301.4602               319.9106               355.0131
 Red. masses --      2.0915                 1.3455                 2.4457
 Frc consts  --      0.1120                 0.0811                 0.1816
 IR Inten    --     15.3879                29.6075                 9.1560

                     13                     14                     15
                      A                      A                      A
 Frequencies --    374.9855               427.8964               500.8820
 Red. masses --      2.7392                 2.1910                 2.8905
 Frc consts  --      0.2269                 0.2364                 0.4273
 IR Inten    --     16.1665                 6.0585                 8.1323

                     16                     17                     18
                      A                      A                      A
 Frequencies --    531.8002               579.4537               812.9627
 Red. masses --      3.1322                 2.5172                 1.5635
 Frc consts  --      0.5219                 0.4980                 0.6088
 IR Inten    --     14.2736                13.1379                60.3970

                     19                     20                     21
                      A                      A                      A
 Frequencies --    842.6515               848.7388               903.5352
 Red. masses --      1.3937                 2.1642                 1.8561
 Frc consts  --      0.5831                 0.9185                 0.8928
 IR Inten    --     58.4492               119.6611                94.1924

                     22                     23                     24
                      A                      A                      A
 Frequencies --    925.7183               952.3136               958.5089
 Red. masses --      1.7609                 1.3826                 1.6665
 Frc consts  --      0.8891                 0.7388                 0.9021
 IR Inten    --     57.4331                74.1613                38.7855

                     25                     26                     27
                      A                      A                      A
 Frequencies --    983.6701              1013.5061              1052.9372
 Red. masses --      1.6388                 1.9004                 2.1710
 Frc consts  --      0.9343                 1.1501                 1.4181
 IR Inten    --     31.7955                43.4400                26.6799

                     28                     29                     30
                      A                      A                      A
 Frequencies --   1074.9290              1091.5606              1108.7684
 Red. masses --      1.8958                 2.5371                 1.5082
 Frc consts  --      1.2906                 1.7811                 1.0924
 IR Inten    --      5.5179                 8.1474                13.1592

                     31                     32                     33
                      A                      A                      A
 Frequencies --   1140.4931              1159.2971              1178.0230
 Red. masses --      1.7197                 2.4858                 1.5436
 Frc consts  --      1.3179                 1.9684                 1.2621
 IR Inten    --      1.8944                45.7041                 5.6625

                     34                     35                     36
                      A                      A                      A
 Frequencies --   1214.7967              1249.6931              1292.3028
 Red. masses --      1.9123                 1.5360                 1.1977
 Frc consts  --      1.6627                 1.4133                 1.1785
 IR Inten    --     14.4966                 4.5149                15.1070

                     37                     38                     39
                      A                      A                      A
 Frequencies --   1309.5326              1330.6835              1334.4820
 Red. masses --      1.1942                 1.1843                 1.3217
 Frc consts  --      1.2066                 1.2356                 1.3868
 IR Inten    --      1.8142                 7.1571                 3.6626

                     40                     41                     42
                      A                      A                      A
 Frequencies --   1366.9825              1372.9445              1407.9082
 Red. masses --      1.3548                 1.3105                 1.3271
 Frc consts  --      1.4916                 1.4554                 1.5499
 IR Inten    --      2.8553                 3.5817                 6.1885

                     43                     44                     45
                      A                      A                      A
 Frequencies --   1420.5202              1431.9448              1490.1908
 Red. masses --      1.4643                 1.4452                 1.0961
 Frc consts  --      1.7410                 1.7459                 1.4341
 IR Inten    --      3.6535                 7.2283                 1.3992

                     46                     47                     48
                      A                      A                      A
 Frequencies --   1504.3346              1532.1912              1655.0028
 Red. masses --      1.0850                 1.1504                 1.0898
 Frc consts  --      1.4467                 1.5913                 1.7587
 IR Inten    --      6.8343                24.0683                27.7106

                     49                     50                     51
                      A                      A                      A
 Frequencies --   1656.7429              1664.5891              1680.9779
 Red. masses --      1.0875                 1.0843                 1.0644
 Frc consts  --      1.7587                 1.7702                 1.7721
 IR Inten    --     23.3345                24.1802                15.3238

                     52                     53                     54
                      A                      A                      A
 Frequencies --   2836.1967              2967.9275              2991.4529
 Red. masses --      1.0785                 1.0707                 1.0822
 Frc consts  --      5.1113                 5.5568                 5.7059
 IR Inten    --     71.6183                72.4022                20.7212

                     55                     56                     57
                      A                      A                      A
 Frequencies --   3022.0487              3052.3876              3062.3807
 Red. masses --      1.0581                 1.0907                 1.1044
 Frc consts  --      5.6933                 5.9872                 6.1025
 IR Inten    --     35.0162                22.2233                45.9275

                     58                     59                     60
                      A                      A                      A
 Frequencies --   3367.9195              3454.2018              3485.3433
 Red. masses --      1.0566                 1.0509                 1.0496
 Frc consts  --      7.0613                 7.3879                 7.5123
 IR Inten    --     25.1403                 3.9423                 0.4809

                     61                     62                     63
                      A                      A                      A
 Frequencies --   3485.9574              3515.7452              3532.6282
 Red. masses --      1.0505                 1.0779                 1.0883
 Frc consts  --      7.5215                 7.8496                 8.0019
 IR Inten    --      0.4791                24.1954                 7.9606

                     64                     65                     66
                      A                      A                      A
 Frequencies --   3534.2403              3563.8521              3565.4907
 Red. masses --      1.0801                 1.0918                 1.0910
 Frc consts  --      7.9487                 8.1703                 8.1718
 IR Inten    --      4.8766                 0.1194                 0.2391

 - Thermochemistry -
 -------------------
 Temperature   298.150 Kelvin.  Pressure   1.00000 Atm.
 Atom     1 has atomic number  7 and mass  14.00307

 Molecular mass:   133.13275 amu.
 Principal axes and moments of inertia in atomic units:
                           1         2         3
     Eigenvalues --   900.113521678.319422397.92669
           X            0.99982  -0.01791  -0.00558
           Y            0.01787   0.99981  -0.00824
           Z            0.00572   0.00814   0.99995
 This molecule is an asymmetric top.
 Rotational symmetry number  1.
 Warning -- assumption of classical behavior for rotation
           may cause significant error
 Rotational temperatures (Kelvin)      0.09623     0.05161     0.03612
 Rotational constants (GHZ):           2.00502     1.07533     0.75263
 Zero-point vibrational energy     576800.5 (Joules/Mol)
                                  137.85863 (Kcal/Mol)
 Warning -- explicit consideration of  17 degrees of freedom as
           vibrations may cause significant error
 Vibrational temperatures:     87.17   157.07   166.63   213.46   255.43
          (Kelvin)            326.70   350.31   387.84   416.30   433.73
                              460.28   510.78   539.52   615.65   720.66
                              765.14   833.70  1169.67  1212.39  1221.15
                             1299.99  1331.90  1370.17  1379.08  1415.28
                             1458.21  1514.94  1546.58  1570.51  1595.27
                             1640.92  1667.97  1694.91  1747.82  1798.03
                             1859.34  1884.13  1914.56  1920.02  1966.78
                             1975.36  2025.67  2043.81  2060.25  2144.05
                             2164.40  2204.48  2381.18  2383.68  2394.97
                             2418.55  4080.65  4270.19  4304.03  4348.05
                             4391.70  4406.08  4845.69  4969.83  5014.63
                             5015.52  5058.37  5082.66  5084.98  5127.59
                             5129.95

 Zero-point correction=                           0.219692 (Hartree/Particle)
 Thermal correction to Energy=                    0.231066
 Thermal correction to Enthalpy=                  0.232010
 Thermal correction to Gibbs Free Energy=         0.183352
 Sum of electronic and zero-point Energies=           -434.969791
 Sum of electronic and thermal Energies=              -434.958417
 Sum of electronic and thermal Enthalpies=            -434.957472
 Sum of electronic and thermal Free Energies=         -435.006131

                     E (Thermal)             CV                S
                      KCal/Mol        Cal/Mol-Kelvin    Cal/Mol-Kelvin
 Total                  144.996             41.987            102.410
 Electronic               0.000              0.000              0.000
 Translational            0.889              2.981             40.571
 Rotational               0.889              2.981             29.673
 Vibrational            143.218             36.025             32.166
 Vibration     1          0.597              1.973              4.438
 Vibration     2          0.606              1.942              3.284
 Vibration     3          0.608              1.936              3.169
 Vibration     4          0.618              1.904              2.693
 Vibration     5          0.628              1.870              2.354
 Vibration     6          0.651              1.800              1.902
 Vibration     7          0.659              1.774              1.777
 Vibration     8          0.674              1.729              1.599
 Vibration     9          0.686              1.694              1.478
 Vibration    10          0.693              1.671              1.409
 Vibration    11          0.706              1.635              1.311
 Vibration    12          0.731              1.565              1.144
 Vibration    13          0.746              1.523              1.059
 Vibration    14          0.789              1.410              0.866
 Vibration    15          0.856              1.248              0.656
 Vibration    16          0.887              1.180              0.583
 Vibration    17          0.936              1.076              0.486

                           ! Non-Optimized Parameters !
 Normal termination of Gaussian 16 at Tue Jun  1 00:36:50 2021.
