 Gaussian 16, Revision A.03,
 Gaussian 16:  ES64L-G16RevA.03 25-Dec-2016

 -----------------------------
 # opt freq b3lyp/6-31g(2df,p)
 -----------------------------

 -------------------
 Title Card Required
 -------------------
 Symbolic Z-matrix:
 Charge =  0 Multiplicity = 1

 SCF Done:  E(RB3LYP) =  -394.618118992     A.U. after   14 cycles
 SCF Done:  E(RB3LYP) =  -394.627281406     A.U. after   12 cycles
 SCF Done:  E(RB3LYP) =  -394.630080568     A.U. after   12 cycles
 SCF Done:  E(RB3LYP) =  -394.632034333     A.U. after   12 cycles
 SCF Done:  E(RB3LYP) =  -394.634158192     A.U. after   12 cycles
 SCF Done:  E(RB3LYP) =  -394.635381435     A.U. after   13 cycles
 SCF Done:  E(RB3LYP) =  -394.636806905     A.U. after   13 cycles
 SCF Done:  E(RB3LYP) =  -394.637681808     A.U. after   12 cycles
 SCF Done:  E(RB3LYP) =  -394.638187356     A.U. after   13 cycles
 SCF Done:  E(RB3LYP) =  -394.638375779     A.U. after   11 cycles
 SCF Done:  E(RB3LYP) =  -394.638400789     A.U. after   11 cycles
 SCF Done:  E(RB3LYP) =  -394.638409163     A.U. after    9 cycles
 SCF Done:  E(RB3LYP) =  -394.638412222     A.U. after    9 cycles
 SCF Done:  E(RB3LYP) =  -394.638413215     A.U. after    8 cycles
 SCF Done:  E(RB3LYP) =  -394.638413419     A.U. after    7 cycles
 SCF Done:  E(RB3LYP) =  -394.638413489     A.U. after    7 cycles
 Optimization completed.
    -- Stationary point found.
 Normal termination of Gaussian 16 at Mon May 31 19:43:50 2021.

 ----------------------------------------------------------------------
 #N Geom=AllCheck Guess=TCheck SCRF=Check GenChk RB3LYP/6-31G(2df,p) Fr
 eq
 ----------------------------------------------------------------------

 Structure from the checkpoint file:  "NCCpNpCdNNN.chk"
 -------------------
 Title Card Required
 -------------------
 Charge =  0 Multiplicity = 1

                         Standard orientation:
 ---------------------------------------------------------------------
 Center     Atomic      Atomic             Coordinates (Angstroms)
 Number     Number       Type             X           Y           Z
 ---------------------------------------------------------------------
      1          7           0       -3.213443   -0.776232   -0.229044
      2          6           0       -1.877426   -0.799071    0.376373
      3          6           0       -0.998193    0.304599   -0.261010
      4          7           0       -1.603147    1.641500   -0.192449
      5          6           0        0.363502    0.323304    0.371040
      6          7           0        1.378676   -0.177515   -0.212130
      7          7           0        2.571675   -0.213069    0.476236
      8          7           0        3.721691   -0.208482   -0.347930
      9          1           0       -3.855181   -1.349444    0.308375
     10          1           0       -3.177156   -1.184320   -1.158997
     11          1           0       -1.358328   -1.766877    0.288153
     12          1           0       -1.989754   -0.588226    1.447961
     13          1           0       -0.859179    0.049205   -1.319353
     14          1           0       -1.574848    1.967684    0.772295
     15          1           0       -2.593033    1.524286   -0.405220
     16          1           0        0.436482    0.763690    1.378355
     17          1           0        2.660136    0.533357    1.163976
     18          1           0        3.547210    0.371940   -1.169021
     19          1           0        3.848186   -1.157702   -0.687724
 ---------------------------------------------------------------------

 SCF Done:  E(RB3LYP) =  -394.638413489     A.U. after    1 cycles

 The electronic state is 1-A.
 Alpha  occ. eigenvalues --  -14.37592 -14.35142 -14.33828 -14.31665 -14.29855
 Alpha  occ. eigenvalues --  -10.21028 -10.20922 -10.20628  -1.01470  -0.90331
 Alpha  occ. eigenvalues --   -0.88331  -0.85751  -0.74860  -0.69618  -0.62303
 Alpha  occ. eigenvalues --   -0.57550  -0.52751  -0.50412  -0.49219  -0.47962
 Alpha  occ. eigenvalues --   -0.45891  -0.44091  -0.42255  -0.40511  -0.36966
 Alpha  occ. eigenvalues --   -0.36190  -0.34473  -0.27367  -0.26472  -0.24875
 Alpha  occ. eigenvalues --   -0.23320  -0.21914
 Alpha virt. eigenvalues --    0.00432   0.07659   0.09602   0.10313   0.10925
 Alpha virt. eigenvalues --    0.12871   0.14438   0.15531   0.16871   0.17307
 Alpha virt. eigenvalues --    0.18110   0.19537   0.20343   0.21964   0.24644

 Mulliken charges:
               1
     1  N   -0.512288
     2  C   -0.162512
     3  C   -0.002660
     4  N   -0.522304
     5  C    0.028962
     6  N   -0.131574
     7  N   -0.224380
     8  N   -0.439913
     9  H    0.231692
    10  H    0.229833
    11  H    0.093291
    12  H    0.091738
    13  H    0.088842
    14  H    0.212027
    15  H    0.237497
    16  H    0.066267
    17  H    0.234651
    18  H    0.232332
    19  H    0.248499
 Sum of Mulliken charges =  -0.00000

 Dipole moment (field-independent basis, Debye):
    X=             -1.4266    Y=             -1.1900    Z=              0.7713  Tot=              2.0115
 Quadrupole moment (field-independent basis, Debye-Ang):
   XX=            -48.6641   YY=            -49.1954   ZZ=            -45.5653
   XY=              5.2336   XZ=             -3.6098   YZ=              4.5709

  Exact polarizability: 105.262  -4.105  60.087  -2.834   4.426  61.252
 Approx polarizability: 131.469 -11.496  88.259  -5.488   8.145  95.094

                      1                      2                      3
                      A                      A                      A
 Frequencies --     43.3533                99.1074               128.8953
 Red. masses --      3.1846                 3.0257                 2.5512
 Frc consts  --      0.0035                 0.0175                 0.0250
 IR Inten    --      1.9884                 0.1779                 3.4995

                      4                      5                      6
                      A                      A                      A
 Frequencies --    167.9994               198.4389               238.3133
 Red. masses --      3.5801                 2.9316                 1.1101
 Frc consts  --      0.0595                 0.0680                 0.0371
 IR Inten    --     10.4750                 0.4161                29.5898

                      7                      8                      9
                      A                      A                      A
 Frequencies --    265.7241               282.5715               326.4518
 Red. masses --      2.4547                 1.1539                 1.3027
 Frc consts  --      0.1021                 0.0543                 0.0818
 IR Inten    --      7.4322                35.3916                46.5433

                     10                     11                     12
                      A                      A                      A
 Frequencies --    367.4078               420.6036               461.6603
 Red. masses --      4.4066                 2.4486                 3.3728
 Frc consts  --      0.3505                 0.2552                 0.4235
 IR Inten    --     19.2838                10.0966                 4.3616

                     13                     14                     15
                      A                      A                      A
 Frequencies --    546.9218               600.0896               731.0006
 Red. masses --      2.7489                 3.0048                 2.1711
 Frc consts  --      0.4845                 0.6375                 0.6835
 IR Inten    --    116.3825                 0.4349               118.1076

                     16                     17                     18
                      A                      A                      A
 Frequencies --    823.4416               896.0447               933.0621
 Red. masses --      1.5149                 1.9632                 1.4434
 Frc consts  --      0.6052                 0.9287                 0.7404
 IR Inten    --     47.0580               118.3695                71.3710

                     19                     20                     21
                      A                      A                      A
 Frequencies --    946.0726               951.8566              1005.7971
 Red. masses --      1.5865                 1.8165                 1.9263
 Frc consts  --      0.8366                 0.9697                 1.1481
 IR Inten    --     15.0224                34.0470                88.3083

                     22                     23                     24
                      A                      A                      A
 Frequencies --   1039.9784              1080.6633              1103.6435
 Red. masses --      1.7873                 2.6303                 3.1663
 Frc consts  --      1.1389                 1.8098                 2.2723
 IR Inten    --     13.1441                 5.3245                51.5013

                     25                     26                     27
                      A                      A                      A
 Frequencies --   1143.0739              1179.9962              1211.4332
 Red. masses --      1.9415                 1.4423                 1.8548
 Frc consts  --      1.4947                 1.1832                 1.6038
 IR Inten    --      2.3084                25.5717                19.4792

                     28                     29                     30
                      A                      A                      A
 Frequencies --   1244.4570              1319.6493              1329.3521
 Red. masses --      1.6431                 1.1969                 1.1898
 Frc consts  --      1.4993                 1.2281                 1.2388
 IR Inten    --      6.8057                 4.5334                 5.7213

                     31                     32                     33
                      A                      A                      A
 Frequencies --   1348.2428              1369.2742              1404.5767
 Red. masses --      1.3492                 1.2585                 1.3613
 Frc consts  --      1.4450                 1.3902                 1.5823
 IR Inten    --     12.0692                17.6739                 3.3643

                     34                     35                     36
                      A                      A                      A
 Frequencies --   1420.8229              1498.6366              1501.8249
 Red. masses --      1.5920                 1.0891                 1.1614
 Frc consts  --      1.8935                 1.4411                 1.5433
 IR Inten    --      5.7585                 2.0229                 9.6448

                     37                     38                     39
                      A                      A                      A
 Frequencies --   1657.1072              1664.0960              1693.4880
 Red. masses --      1.0892                 1.0906                 1.1663
 Frc consts  --      1.7622                 1.7795                 1.9708
 IR Inten    --     20.8268                24.3942                27.7903

                     40                     41                     42
                      A                      A                      A
 Frequencies --   1714.8836              2971.1711              2986.2094
 Red. masses --      4.6984                 1.0666                 1.0836
 Frc consts  --      8.1408                 5.5476                 5.6932
 IR Inten    --      1.2330                56.3692                42.3378

                     43                     44                     45
                      A                      A                      A
 Frequencies --   3024.1169              3047.4843              3431.5330
 Red. masses --      1.0845                 1.0943                 1.0532
 Frc consts  --      5.8437                 5.9879                 7.3071
 IR Inten    --      2.2519                58.5039                11.1614

                     46                     47                     48
                      A                      A                      A
 Frequencies --   3450.9375              3452.4590              3493.7873
 Red. masses --      1.0732                 1.0490                 1.0500
 Frc consts  --      7.5303                 7.3667                 7.5515
 IR Inten    --      5.2146                 6.4923                 0.2170

                     49                     50                     51
                      A                      A                      A
 Frequencies --   3526.9289              3535.6176              3574.1721
 Red. masses --      1.0903                 1.0889                 1.0919
 Frc consts  --      7.9910                 8.0197                 8.2183
 IR Inten    --      5.0552                 1.4247                 0.8220

 - Thermochemistry -
 -------------------
 Temperature   298.150 Kelvin.  Pressure   1.00000 Atm.
 Atom     1 has atomic number  7 and mass  14.00307

 Molecular mass:   117.10145 amu.
 Principal axes and moments of inertia in atomic units:
                           1         2         3
     Eigenvalues --   340.718752312.240072495.16828
           X            0.99996   0.00761  -0.00450
           Y           -0.00739   0.99885   0.04738
           Z            0.00486  -0.04735   0.99887
 This molecule is an asymmetric top.
 Rotational symmetry number  1.
 Rotational temperatures (Kelvin)      0.25421     0.03746     0.03471
 Rotational constants (GHZ):           5.29687     0.78052     0.72329
 Zero-point vibrational energy     435766.3 (Joules/Mol)
                                  104.15064 (Kcal/Mol)
 Warning -- explicit consideration of  14 degrees of freedom as
           vibrations may cause significant error
 Vibrational temperatures:     62.38   142.59   185.45   241.71   285.51
          (Kelvin)            342.88   382.32   406.56   469.69   528.62
                              605.15   664.23   786.90   863.40  1051.75
                             1184.75  1289.21  1342.47  1361.19  1369.51
                             1447.12  1496.30  1554.83  1587.90  1644.63
                             1697.75  1742.98  1790.50  1898.68  1912.64
                             1939.82  1970.08  2020.87  2044.25  2156.20
                             2160.79  2384.21  2394.26  2436.55  2467.34
                             4274.85  4296.49  4351.03  4384.65  4937.21
                             4965.13  4967.32  5026.78  5074.46  5086.97
                             5142.44

 Zero-point correction=                           0.165975 (Hartree/Particle)
 Thermal correction to Energy=                    0.175909
 Thermal correction to Enthalpy=                  0.176854
 Thermal correction to Gibbs Free Energy=         0.130782
 Sum of electronic and zero-point Energies=           -394.472439
 Sum of electronic and thermal Energies=              -394.462504
 Sum of electronic and thermal Enthalpies=            -394.461560
 Sum of electronic and thermal Free Energies=         -394.507632

                     E (Thermal)             CV                S
                      KCal/Mol        Cal/Mol-Kelvin    Cal/Mol-Kelvin
 Total                  110.385             35.228             96.966
 Electronic               0.000              0.000              0.000
 Translational            0.889              2.981             40.189
 Rotational               0.889              2.981             29.065
 Vibrational            108.607             29.266             27.713
 Vibration     1          0.595              1.980              5.100
 Vibration     2          0.604              1.950              3.472
 Vibration     3          0.611              1.924              2.962
 Vibration     4          0.625              1.882              2.458
 Vibration     5          0.637              1.842              2.148
 Vibration     6          0.656              1.782              1.815
 Vibration     7          0.672              1.736              1.624
 Vibration     8          0.682              1.706              1.518
 Vibration     9          0.710              1.623              1.278
 Vibration    10          0.740              1.539              1.091
 Vibration    11          0.783              1.425              0.890
 Vibration    12          0.819              1.335              0.761
 Vibration    13          0.902              1.146              0.551
 Vibration    14          0.958              1.032              0.450

 Optimization completed.
    -- Stationary point found.
 Normal termination of Gaussian 16 at Mon May 31 20:02:58 2021.
