 Gaussian 16, Revision A.03,
 Gaussian 16:  ES64L-G16RevA.03 25-Dec-2016

 -----------------------------
 # opt freq b3lyp/6-31g(2df,p)
 -----------------------------

 -------------------
 Title Card Required
 -------------------
 Symbolic Z-matrix:
 Charge =  0 Multiplicity = 1

 SCF Done:  E(RB3LYP) =  -433.929105869     A.U. after   14 cycles
 SCF Done:  E(RB3LYP) =  -433.939307030     A.U. after   12 cycles
 SCF Done:  E(RB3LYP) =  -433.943117805     A.U. after   12 cycles
 SCF Done:  E(RB3LYP) =  -433.946443290     A.U. after   12 cycles
 SCF Done:  E(RB3LYP) =  -433.949113560     A.U. after   12 cycles
 SCF Done:  E(RB3LYP) =  -433.950084794     A.U. after   12 cycles
 SCF Done:  E(RB3LYP) =  -433.950350055     A.U. after   12 cycles
 SCF Done:  E(RB3LYP) =  -433.950418858     A.U. after   10 cycles
 SCF Done:  E(RB3LYP) =  -433.950441573     A.U. after    9 cycles
 SCF Done:  E(RB3LYP) =  -433.950449952     A.U. after    8 cycles
 SCF Done:  E(RB3LYP) =  -433.950453853     A.U. after    8 cycles
 SCF Done:  E(RB3LYP) =  -433.950456344     A.U. after    9 cycles
 SCF Done:  E(RB3LYP) =  -433.950456875     A.U. after    8 cycles
 SCF Done:  E(RB3LYP) =  -433.950457069     A.U. after    7 cycles
 SCF Done:  E(RB3LYP) =  -433.950457107     A.U. after    6 cycles
 Optimization completed.
    -- Stationary point found.
 Normal termination of Gaussian 16 at Tue Jun  1 05:40:25 2021.

 ----------------------------------------------------------------------
 #N Geom=AllCheck Guess=TCheck SCRF=Check GenChk RB3LYP/6-31G(2df,p) Fr
 eq
 ----------------------------------------------------------------------

 Structure from the checkpoint file:  "NCCpCdNNNpCN.chk"
 -------------------
 Title Card Required
 -------------------
 Charge =  0 Multiplicity = 1

                         Standard orientation:
 ---------------------------------------------------------------------
 Center     Atomic      Atomic             Coordinates (Angstroms)
 Number     Number       Type             X           Y           Z
 ---------------------------------------------------------------------
      1          7           0       -0.846358    2.542011   -0.140939
      2          6           0       -1.750484    1.431137    0.161951
      3          6           0       -1.120861    0.077941   -0.219859
      4          6           0        0.210768   -0.119744    0.444364
      5          7           0        1.281452   -0.225575   -0.235176
      6          7           0        2.460287   -0.458187    0.450129
      7          7           0        3.616230    0.011692   -0.219795
      8          6           0       -2.100816   -1.064339    0.108242
      9          7           0       -1.508922   -2.369279   -0.185082
     10          1           0       -1.310190    3.425435    0.047306
     11          1           0       -0.622690    2.542197   -1.132254
     12          1           0       -2.735089    1.502529   -0.332369
     13          1           0       -1.944285    1.443744    1.243088
     14          1           0       -0.936267    0.075479   -1.303476
     15          1           0        0.215015   -0.165779    1.543403
     16          1           0        2.453245   -0.063272    1.388963
     17          1           0        3.390306    0.874993   -0.715856
     18          1           0        3.844023   -0.676067   -0.932406
     19          1           0       -3.047870   -0.865098   -0.423525
     20          1           0       -2.336244   -1.037691    1.181072
     21          1           0       -1.220538   -2.409132   -1.158428
     22          1           0       -2.199889   -3.101939   -0.057676
 ---------------------------------------------------------------------

 SCF Done:  E(RB3LYP) =  -433.950457107     A.U. after    1 cycles

 The electronic state is 1-A.
 Alpha  occ. eigenvalues --  -14.36310 -14.33658 -14.32881 -14.30749 -14.30476
 Alpha  occ. eigenvalues --  -10.20758 -10.20639 -10.20045 -10.18850  -1.00133
 Alpha  occ. eigenvalues --   -0.89035  -0.87270  -0.87030  -0.76893  -0.71390
 Alpha  occ. eigenvalues --   -0.63958  -0.61435  -0.56364  -0.51303  -0.49328
 Alpha  occ. eigenvalues --   -0.49006  -0.47700  -0.45716  -0.45014  -0.43397
 Alpha  occ. eigenvalues --   -0.42431  -0.38262  -0.36711  -0.36079  -0.33608
 Alpha  occ. eigenvalues --   -0.33355  -0.26227  -0.25538  -0.23863  -0.23020
 Alpha  occ. eigenvalues --   -0.20843
 Alpha virt. eigenvalues --    0.01938   0.08093   0.09239   0.10199   0.10877
 Alpha virt. eigenvalues --    0.11286   0.12641   0.15523   0.15923   0.16770
 Alpha virt. eigenvalues --    0.18031   0.18388   0.18899   0.20326   0.20449

 Mulliken charges:
               1
     1  N   -0.505984
     2  C   -0.157624
     3  C   -0.056447
     4  C    0.090402
     5  N   -0.151094
     6  N   -0.225869
     7  N   -0.442340
     8  C   -0.157371
     9  N   -0.502337
    10  H    0.225320
    11  H    0.225092
    12  H    0.078787
    13  H    0.100384
    14  H    0.076377
    15  H    0.067859
    16  H    0.232703
    17  H    0.227061
    18  H    0.245193
    19  H    0.077889
    20  H    0.099957
    21  H    0.226973
    22  H    0.225068
 Sum of Mulliken charges =  -0.00000

 Dipole moment (field-independent basis, Debye):
    X=             -3.0127    Y=              1.1069    Z=             -1.1163  Tot=              3.3982
 Quadrupole moment (field-independent basis, Debye-Ang):
   XX=            -55.4659   YY=            -52.2947   ZZ=            -50.8538
   XY=              1.6101   XZ=             -1.9819   YZ=              0.6599

  Exact polarizability: 109.115  -0.609  78.537  -5.917   0.086  69.731
 Approx polarizability: 144.193  -3.816 102.353 -12.650   0.580 111.043

                      1                      2                      3
                      A                      A                      A
 Frequencies --     42.8508                71.1054                80.4899
 Red. masses --      3.3249                 2.1201                 2.5960
 Frc consts  --      0.0036                 0.0063                 0.0099
 IR Inten    --      0.8129                 0.8728                 5.5168

                      4                      5                      6
                      A                      A                      A
 Frequencies --    124.4043               148.7336               173.7389
 Red. masses --      2.3234                 2.6965                 2.4309
 Frc consts  --      0.0212                 0.0351                 0.0432
 IR Inten    --      1.1855                 3.3151                15.8101

                      7                      8                      9
                      A                      A                      A
 Frequencies --    185.5101               229.4375               242.1444
 Red. masses --      2.9876                 1.3062                 1.2644
 Frc consts  --      0.0606                 0.0405                 0.0437
 IR Inten    --      0.6531                44.8981                31.9719

                     10                     11                     12
                      A                      A                      A
 Frequencies --    296.7259               353.7875               389.3618
 Red. masses --      1.9036                 1.6247                 3.5990
 Frc consts  --      0.0987                 0.1198                 0.3215
 IR Inten    --     26.5009                26.4605                 3.3819

                     13                     14                     15
                      A                      A                      A
 Frequencies --    411.3030               476.5109               530.3033
 Red. masses --      3.4143                 4.0555                 2.3316
 Frc consts  --      0.3403                 0.5426                 0.3863
 IR Inten    --      1.4521                 8.6152                53.4068

                     16                     17                     18
                      A                      A                      A
 Frequencies --    571.8522               735.5027               829.0290
 Red. masses --      3.1654                 2.1569                 1.2275
 Frc consts  --      0.6099                 0.6875                 0.4971
 IR Inten    --     49.8386               102.5417                83.7371

                     19                     20                     21
                      A                      A                      A
 Frequencies --    837.1861               914.7206               939.9535
 Red. masses --      1.2862                 1.9194                 1.5804
 Frc consts  --      0.5312                 0.9462                 0.8227
 IR Inten    --    124.5063                 8.9303                22.4466

                     22                     23                     24
                      A                      A                      A
 Frequencies --    949.5600               963.9757               994.7718
 Red. masses --      2.0429                 1.8287                 1.7001
 Frc consts  --      1.0853                 1.0012                 0.9912
 IR Inten    --     11.7704                68.8749                 7.8729

                     25                     26                     27
                      A                      A                      A
 Frequencies --   1034.3904              1091.8942              1100.4129
 Red. masses --      2.1043                 2.4225                 2.9628
 Frc consts  --      1.3265                 1.7017                 2.1138
 IR Inten    --      1.5630                 9.3036                33.7150

                     28                     29                     30
                      A                      A                      A
 Frequencies --   1107.1545              1137.9395              1169.7171
 Red. masses --      3.1937                 1.2208                 2.0790
 Frc consts  --      2.3066                 0.9314                 1.6760
 IR Inten    --      8.2000                 0.4368                 3.4118

                     31                     32                     33
                      A                      A                      A
 Frequencies --   1216.5295              1241.9943              1289.8810
 Red. masses --      1.7513                 1.7857                 1.1099
 Frc consts  --      1.5270                 1.6229                 1.0880
 IR Inten    --     24.9416                 5.6840                 4.5528

                     34                     35                     36
                      A                      A                      A
 Frequencies --   1298.3345              1326.5356              1337.8831
 Red. masses --      1.3087                 1.1598                 1.3352
 Frc consts  --      1.2997                 1.2025                 1.4081
 IR Inten    --      1.4717                 2.9137                 0.0067

                     37                     38                     39
                      A                      A                      A
 Frequencies --   1351.7268              1395.7309              1417.2385
 Red. masses --      1.2782                 1.5684                 1.4380
 Frc consts  --      1.3761                 1.8001                 1.7017
 IR Inten    --     16.1572                10.6691                17.6749

                     40                     41                     42
                      A                      A                      A
 Frequencies --   1434.4439              1503.2240              1509.3735
 Red. masses --      1.3821                 1.1462                 1.0836
 Frc consts  --      1.6755                 1.5261                 1.4544
 IR Inten    --      0.9542                 7.7279                 3.7411

                     43                     44                     45
                      A                      A                      A
 Frequencies --   1520.4253              1656.0275              1656.9481
 Red. masses --      1.0919                 1.0889                 1.0889
 Frc consts  --      1.4872                 1.7594                 1.7614
 IR Inten    --      0.1252                22.9990                31.9620

                     46                     47                     48
                      A                      A                      A
 Frequencies --   1692.1661              1715.7929              2934.1241
 Red. masses --      1.1393                 5.3571                 1.0719
 Frc consts  --      1.9220                 9.2920                 5.4368
 IR Inten    --     24.1974                 1.1667                12.6979

                     49                     50                     51
                      A                      A                      A
 Frequencies --   2947.4404              3005.1340              3008.6167
 Red. masses --      1.0718                 1.0819                 1.0832
 Frc consts  --      5.4860                 5.7567                 5.7770
 IR Inten    --    167.5686                17.1271                11.1330

                     52                     53                     54
                      A                      A                      A
 Frequencies --   3021.1573              3037.8383              3424.7914
 Red. masses --      1.0877                 1.0901                 1.0529
 Frc consts  --      5.8493                 5.9271                 7.2765
 IR Inten    --      1.1208               101.8712                15.4065

                     55                     56                     57
                      A                      A                      A
 Frequencies --   3453.0939              3487.5711              3491.0217
 Red. masses --      1.0742                 1.0492                 1.0491
 Frc consts  --      7.5466                 7.5190                 7.5328
 IR Inten    --      4.0145                 0.3582                 0.2615

                     58                     59                     60
                      A                      A                      A
 Frequencies --   3531.6463              3567.4768              3571.8900
 Red. masses --      1.0879                 1.0923                 1.0926
 Frc consts  --      7.9948                 8.1904                 8.2130
 IR Inten    --      0.9161                 0.1018                 0.1533

 - Thermochemistry -
 -------------------
 Temperature   298.150 Kelvin.  Pressure   1.00000 Atm.
 Atom     1 has atomic number  7 and mass  14.00307

 Molecular mass:   131.11710 amu.
 Principal axes and moments of inertia in atomic units:
                           1         2         3
     Eigenvalues --   979.534961884.862992708.72603
           X            0.99997   0.00732  -0.00371
           Y           -0.00731   0.99997   0.00102
           Z            0.00372  -0.00099   0.99999
 This molecule is an asymmetric top.
 Rotational symmetry number  1.
 Warning -- assumption of classical behavior for rotation
           may cause significant error
 Rotational temperatures (Kelvin)      0.08842     0.04595     0.03198
 Rotational constants (GHZ):           1.84245     0.95749     0.66627
 Zero-point vibrational energy     509492.7 (Joules/Mol)
                                  121.77167 (Kcal/Mol)
 Warning -- explicit consideration of  16 degrees of freedom as
           vibrations may cause significant error
 Vibrational temperatures:     61.65   102.30   115.81   178.99   213.99
          (Kelvin)            249.97   266.91   330.11   348.39   426.92
                              509.02   560.20   591.77   685.59   762.99
                              822.77  1058.22  1192.79  1204.52  1316.08
                             1352.38  1366.21  1386.95  1431.25  1488.26
                             1570.99  1583.25  1592.95  1637.24  1682.96
                             1750.31  1786.95  1855.85  1868.01  1908.59
                             1924.92  1944.83  2008.15  2039.09  2063.84
                             2162.80  2171.65  2187.55  2382.65  2383.98
                             2434.65  2468.64  4221.55  4240.71  4323.72
                             4328.73  4346.77  4370.77  4927.51  4968.23
                             5017.84  5022.80  5081.25  5132.80  5139.15

 Zero-point correction=                           0.194056 (Hartree/Particle)
 Thermal correction to Energy=                    0.205591
 Thermal correction to Enthalpy=                  0.206535
 Thermal correction to Gibbs Free Energy=         0.156224
 Sum of electronic and zero-point Energies=           -433.756402
 Sum of electronic and thermal Energies=              -433.744866
 Sum of electronic and thermal Enthalpies=            -433.743922
 Sum of electronic and thermal Free Energies=         -433.794233

                     E (Thermal)             CV                S
                      KCal/Mol        Cal/Mol-Kelvin    Cal/Mol-Kelvin
 Total                  129.010             40.296            105.889
 Electronic               0.000              0.000              0.000
 Translational            0.889              2.981             40.526
 Rotational               0.889              2.981             29.993
 Vibrational            127.233             34.335             35.370
 Vibration     1          0.595              1.980              5.123
 Vibration     2          0.598              1.968              4.123
 Vibration     3          0.600              1.962              3.879
 Vibration     4          0.610              1.929              3.031
 Vibration     5          0.618              1.904              2.688
 Vibration     6          0.627              1.875              2.395
 Vibration     7          0.632              1.860              2.272
 Vibration     8          0.652              1.796              1.883
 Vibration     9          0.658              1.776              1.787
 Vibration    10          0.690              1.680              1.435
 Vibration    11          0.730              1.567              1.149
 Vibration    12          0.757              1.493              1.003
 Vibration    13          0.775              1.446              0.922
 Vibration    14          0.833              1.302              0.720
 Vibration    15          0.885              1.183              0.587
 Vibration    16          0.928              1.092              0.501

                           ! Non-Optimized Parameters !
 Normal termination of Gaussian 16 at Tue Jun  1 06:09:26 2021.
