 Gaussian 16, Revision A.03,
 Gaussian 16:  ES64L-G16RevA.03 25-Dec-2016

 -----------------------------
 # opt freq b3lyp/6-31g(2df,p)
 -----------------------------

 -------------------
 Title Card Required
 -------------------
 Symbolic Z-matrix:
 Charge =  0 Multiplicity = 1

 SCF Done:  E(RB3LYP) =  -461.757388104     A.U. after   12 cycles
 SCF Done:  E(RB3LYP) =  -461.764938414     A.U. after   11 cycles
 SCF Done:  E(RB3LYP) =  -461.766377837     A.U. after   11 cycles
 SCF Done:  E(RB3LYP) =  -461.767363252     A.U. after   12 cycles
 SCF Done:  E(RB3LYP) =  -461.769159923     A.U. after   13 cycles
 SCF Done:  E(RB3LYP) =  -461.770537322     A.U. after   12 cycles
 SCF Done:  E(RB3LYP) =  -461.773041355     A.U. after   12 cycles
 SCF Done:  E(RB3LYP) =  -461.773534592     A.U. after   12 cycles
 SCF Done:  E(RB3LYP) =  -461.773903353     A.U. after   11 cycles
 SCF Done:  E(RB3LYP) =  -461.774011256     A.U. after   11 cycles
 SCF Done:  E(RB3LYP) =  -461.774039187     A.U. after    9 cycles
 SCF Done:  E(RB3LYP) =  -461.774049947     A.U. after    9 cycles
 SCF Done:  E(RB3LYP) =  -461.774050711     A.U. after    7 cycles
 SCF Done:  E(RB3LYP) =  -461.774050906     A.U. after    7 cycles
 Optimization completed.
    -- Stationary point found.
 Normal termination of Gaussian 16 at Mon May 31 19:09:49 2021.

 ----------------------------------------------------------------------
 #N Geom=AllCheck Guess=TCheck SCRF=Check GenChk RB3LYP/6-31G(2df,p) Fr
 eq
 ----------------------------------------------------------------------

 Structure from the checkpoint file:  "NCCpNpCdCCNF.chk"
 -------------------
 Title Card Required
 -------------------
 Charge =  0 Multiplicity = 1

                         Standard orientation:
 ---------------------------------------------------------------------
 Center     Atomic      Atomic             Coordinates (Angstroms)
 Number     Number       Type             X           Y           Z
 ---------------------------------------------------------------------
      1          7           0       -3.895528   -0.519842    0.305994
      2          6           0       -2.492129   -0.917989    0.164009
      3          6           0       -1.672460    0.257618   -0.419212
      4          7           0       -1.761532    1.482527    0.372007
      5          6           0       -0.246744   -0.158845   -0.658176
      6          6           0        0.833833    0.563169   -0.367923
      7          6           0        2.238570    0.105354   -0.632273
      8          7           0        2.949405    0.026840    0.651823
      9          9           0        4.241830   -0.491568    0.336503
     10          1           0       -4.399547   -1.192744    0.873543
     11          1           0       -4.349290   -0.516815   -0.603212
     12          1           0       -2.343478   -1.815210   -0.461407
     13          1           0       -2.102935   -1.155387    1.162042
     14          1           0       -2.117766    0.483402   -1.404186
     15          1           0       -1.304539    1.325485    1.268548
     16          1           0       -2.745499    1.628283    0.587248
     17          1           0       -0.122371   -1.138326   -1.120688
     18          1           0        0.719656    1.548555    0.074337
     19          1           0        2.779592    0.840724   -1.239077
     20          1           0        2.251779   -0.853960   -1.168308
     21          1           0        2.545096   -0.752412    1.175323
 ---------------------------------------------------------------------

 SCF Done:  E(RB3LYP) =  -461.774050906     A.U. after    1 cycles

 The electronic state is 1-A.
 Alpha  occ. eigenvalues --  -24.67273 -14.39191 -14.32095 -14.30326 -10.21659
 Alpha  occ. eigenvalues --  -10.21524 -10.21247 -10.19045 -10.18644  -1.17920
 Alpha  occ. eigenvalues --   -0.90475  -0.87030  -0.86412  -0.77614  -0.71417
 Alpha  occ. eigenvalues --   -0.65883  -0.60263  -0.55183  -0.52150  -0.50255
 Alpha  occ. eigenvalues --   -0.48841  -0.47278  -0.46249  -0.44488  -0.42484
 Alpha  occ. eigenvalues --   -0.41810  -0.40957  -0.38741  -0.36759  -0.35924
 Alpha  occ. eigenvalues --   -0.35490  -0.33493  -0.26159  -0.25257  -0.24925
 Alpha  occ. eigenvalues --   -0.23499
 Alpha virt. eigenvalues --    0.00355   0.06835   0.07744   0.09749   0.10796
 Alpha virt. eigenvalues --    0.11314   0.12445   0.13514   0.14904   0.15957
 Alpha virt. eigenvalues --    0.16735   0.18342   0.19310   0.19756   0.21441

 Mulliken charges:
               1
     1  N   -0.511317
     2  C   -0.159349
     3  C    0.006337
     4  N   -0.510805
     5  C   -0.043349
     6  C   -0.096582
     7  C   -0.179524
     8  N   -0.157047
     9  F   -0.205265
    10  H    0.232611
    11  H    0.228392
    12  H    0.079324
    13  H    0.100477
    14  H    0.090184
    15  H    0.218279
    16  H    0.237318
    17  H    0.083092
    18  H    0.118617
    19  H    0.127661
    20  H    0.098711
    21  H    0.242235
 Sum of Mulliken charges =   0.00000

 Dipole moment (field-independent basis, Debye):
    X=             -3.5500    Y=             -2.5693    Z=             -0.2736  Tot=              4.3908
 Quadrupole moment (field-independent basis, Debye-Ang):
   XX=            -59.6910   YY=            -55.5441   ZZ=            -51.9561
   XY=              4.4579   XZ=             -1.2269   YZ=             -0.6371

  Exact polarizability: 112.694   4.405  69.207   0.837   2.651  64.196
 Approx polarizability: 140.190   8.325 104.670   4.968   5.640  97.598

                      1                      2                      3
                      A                      A                      A
 Frequencies --     42.4926                79.8714                91.1969
 Red. masses --      4.2576                 3.7673                 4.0471
 Frc consts  --      0.0045                 0.0142                 0.0198
 IR Inten    --      0.3071                 0.6917                 2.8980

                      4                      5                      6
                      A                      A                      A
 Frequencies --    121.5718               158.5041               203.1208
 Red. masses --      3.0931                 3.0951                 2.3830
 Frc consts  --      0.0269                 0.0458                 0.0579
 IR Inten    --      1.6877                 4.7911                 1.1527

                      7                      8                      9
                      A                      A                      A
 Frequencies --    245.7452               273.3898               294.2479
 Red. masses --      1.1581                 3.5426                 2.2875
 Frc consts  --      0.0412                 0.1560                 0.1167
 IR Inten    --     26.4250                 2.6512                23.9395

                     10                     11                     12
                      A                      A                      A
 Frequencies --    332.6983               357.2324               417.6424
 Red. masses --      1.4578                 2.6527                 3.2996
 Frc consts  --      0.0951                 0.1995                 0.3391
 IR Inten    --     24.5514                 3.4231                 3.0884

                     13                     14                     15
                      A                      A                      A
 Frequencies --    471.4934               498.1992               669.8487
 Red. masses --      3.1374                 2.5710                 2.8291
 Frc consts  --      0.4109                 0.3760                 0.7479
 IR Inten    --      8.9271                29.4568                 7.8426

                     16                     17                     18
                      A                      A                      A
 Frequencies --    812.4833               831.1391               892.7831
 Red. masses --      2.2009                 1.4988                 1.8508
 Frc consts  --      0.8560                 0.6100                 0.8691
 IR Inten    --     10.8322                58.0622                81.4309

                     19                     20                     21
                      A                      A                      A
 Frequencies --    919.5038               927.5445               942.3945
 Red. masses --      2.1143                 2.1947                 1.4245
 Frc consts  --      1.0532                 1.1125                 0.7454
 IR Inten    --     73.5483                51.1174                21.7152

                     22                     23                     24
                      A                      A                      A
 Frequencies --    985.0830              1010.0354              1031.8981
 Red. masses --      2.3466                 1.7905                 1.2814
 Frc consts  --      1.3416                 1.0762                 0.8039
 IR Inten    --     23.8215                93.0745                17.6959

                     25                     26                     27
                      A                      A                      A
 Frequencies --   1038.6537              1084.9734              1093.7194
 Red. masses --      2.0297                 2.8287                 2.3526
 Frc consts  --      1.2901                 1.9619                 1.6581
 IR Inten    --     28.7129                12.3292                 0.2402

                     28                     29                     30
                      A                      A                      A
 Frequencies --   1121.9519              1159.7641              1170.6714
 Red. masses --      1.4117                 1.3747                 1.5890
 Frc consts  --      1.0470                 1.0894                 1.2831
 IR Inten    --      7.1949                 1.4101                12.3236

                     31                     32                     33
                      A                      A                      A
 Frequencies --   1230.7604              1276.0901              1299.2240
 Red. masses --      1.9691                 1.2798                 1.1718
 Frc consts  --      1.7573                 1.2279                 1.1654
 IR Inten    --      5.8590                10.2071                 4.2662

                     34                     35                     36
                      A                      A                      A
 Frequencies --   1320.8590              1336.4476              1344.2598
 Red. masses --      1.2697                 1.2674                 1.3219
 Frc consts  --      1.3052                 1.3337                 1.4074
 IR Inten    --      4.5285                 0.2230                 1.0021

                     37                     38                     39
                      A                      A                      A
 Frequencies --   1368.6492              1398.6209              1420.3308
 Red. masses --      1.4022                 1.3596                 1.5099
 Frc consts  --      1.5475                 1.5669                 1.7947
 IR Inten    --      9.5812                16.4704                 0.6307

                     40                     41                     42
                      A                      A                      A
 Frequencies --   1444.0378              1498.2456              1510.3176
 Red. masses --      1.1135                 1.0900                 1.0896
 Frc consts  --      1.3681                 1.4416                 1.4644
 IR Inten    --     21.6205                 2.2566                 2.6562

                     43                     44                     45
                      A                      A                      A
 Frequencies --   1657.9818              1660.7969              1737.2184
 Red. masses --      1.0896                 1.0976                 6.1209
 Frc consts  --      1.7647                 1.7837                10.8836
 IR Inten    --     22.0252                29.9908                 3.6214

                     46                     47                     48
                      A                      A                      A
 Frequencies --   2946.0682              2953.4149              3004.7784
 Red. masses --      1.0745                 1.0759                 1.0620
 Frc consts  --      5.4948                 5.5291                 5.6492
 IR Inten    --     57.4173                43.8848                34.8585

                     49                     50                     51
                      A                      A                      A
 Frequencies --   3048.4185              3062.0275              3126.1526
 Red. masses --      1.0913                 1.0996                 1.0882
 Frc consts  --      5.9751                 6.0741                 6.2661
 IR Inten    --     33.6014                18.8876                18.3118

                     52                     53                     54
                      A                      A                      A
 Frequencies --   3180.5760              3432.1775              3465.1327
 Red. masses --      1.0880                 1.0763                 1.0496
 Frc consts  --      6.4850                 7.4699                 7.4254
 IR Inten    --      3.4219                 0.7687                 2.1627

                     55                     56                     57
                      A                      A                      A
 Frequencies --   3494.8897              3542.6283              3575.9982
 Red. masses --      1.0502                 1.0903                 1.0917
 Frc consts  --      7.5580                 8.0620                 8.2250
 IR Inten    --      0.1635                 5.6631                 0.9674

 - Thermochemistry -
 -------------------
 Temperature   298.150 Kelvin.  Pressure   1.00000 Atm.
 Atom     1 has atomic number  7 and mass  14.00307

 Molecular mass:   133.10153 amu.
 Principal axes and moments of inertia in atomic units:
                           1         2         3
     Eigenvalues --   387.809043625.274863744.94357
           X            0.99992   0.01007  -0.00709
           Y           -0.00979   0.99922   0.03835
           Z            0.00747  -0.03828   0.99924
 This molecule is an asymmetric top.
 Rotational symmetry number  1.
 Rotational temperatures (Kelvin)      0.22334     0.02389     0.02313
 Rotational constants (GHZ):           4.65369     0.49782     0.48191
 Zero-point vibrational energy     476209.2 (Joules/Mol)
                                  113.81672 (Kcal/Mol)
 Warning -- explicit consideration of  14 degrees of freedom as
           vibrations may cause significant error
 Vibrational temperatures:     61.14   114.92   131.21   174.91   228.05
          (Kelvin)            292.25   353.57   393.35   423.36   478.68
                              513.98   600.89   678.37   716.80   963.76
                             1168.98  1195.82  1284.52  1322.96  1334.53
                             1355.90  1417.31  1453.22  1484.67  1494.39
                             1561.03  1573.62  1614.24  1668.64  1684.34
                             1770.79  1836.01  1869.29  1900.42  1922.85
                             1934.09  1969.18  2012.30  2043.54  2077.65
                             2155.64  2173.01  2385.47  2389.52  2499.47
                             4238.74  4249.31  4323.21  4385.99  4405.57
                             4497.84  4576.14  4938.14  4985.55  5028.37
                             5097.05  5145.06

 Zero-point correction=                           0.181378 (Hartree/Particle)
 Thermal correction to Energy=                    0.192174
 Thermal correction to Enthalpy=                  0.193118
 Thermal correction to Gibbs Free Energy=         0.144350
 Sum of electronic and zero-point Energies=           -461.592672
 Sum of electronic and thermal Energies=              -461.581877
 Sum of electronic and thermal Enthalpies=            -461.580932
 Sum of electronic and thermal Free Energies=         -461.629700

                     E (Thermal)             CV                S
                      KCal/Mol        Cal/Mol-Kelvin    Cal/Mol-Kelvin
 Total                  120.591             38.187            102.641
 Electronic               0.000              0.000              0.000
 Translational            0.889              2.981             40.570
 Rotational               0.889              2.981             30.044
 Vibrational            118.814             32.225             32.026
 Vibration     1          0.595              1.980              5.139
 Vibration     2          0.600              1.963              3.894
 Vibration     3          0.602              1.955              3.634
 Vibration     4          0.609              1.931              3.075
 Vibration     5          0.621              1.893              2.568
 Vibration     6          0.639              1.835              2.105
 Vibration     7          0.660              1.770              1.761
 Vibration     8          0.676              1.722              1.575
 Vibration     9          0.689              1.684              1.449
 Vibration    10          0.715              1.610              1.247
 Vibration    11          0.732              1.560              1.134
 Vibration    12          0.781              1.432              0.900
 Vibration    13          0.828              1.313              0.733
 Vibration    14          0.854              1.254              0.663

 Optimization completed.
    -- Stationary point found.
 Normal termination of Gaussian 16 at Mon May 31 19:39:07 2021.
