 Gaussian 16, Revision A.03,
 Gaussian 16:  ES64L-G16RevA.03 25-Dec-2016

 -----------------------------
 # opt freq b3lyp/6-31g(2df,p)
 -----------------------------

 -------------------
 Title Card Required
 -------------------
 Symbolic Z-matrix:
 Charge =  0 Multiplicity = 1

 SCF Done:  E(RB3LYP) =  -435.150932199     A.U. after   12 cycles
 SCF Done:  E(RB3LYP) =  -435.161417080     A.U. after   10 cycles
 SCF Done:  E(RB3LYP) =  -435.163687899     A.U. after   10 cycles
 SCF Done:  E(RB3LYP) =  -435.164176691     A.U. after   10 cycles
 SCF Done:  E(RB3LYP) =  -435.164359786     A.U. after   10 cycles
 SCF Done:  E(RB3LYP) =  -435.164461285     A.U. after   10 cycles
 SCF Done:  E(RB3LYP) =  -435.164526513     A.U. after   10 cycles
 SCF Done:  E(RB3LYP) =  -435.164600808     A.U. after   10 cycles
 SCF Done:  E(RB3LYP) =  -435.164666986     A.U. after   10 cycles
 SCF Done:  E(RB3LYP) =  -435.165229981     A.U. after   11 cycles
 SCF Done:  E(RB3LYP) =  -435.166640477     A.U. after   12 cycles
 SCF Done:  E(RB3LYP) =  -435.166906258     A.U. after   10 cycles
 SCF Done:  E(RB3LYP) =  -435.166895089     A.U. after   10 cycles
 SCF Done:  E(RB3LYP) =  -435.167108064     A.U. after   10 cycles
 SCF Done:  E(RB3LYP) =  -435.167162775     A.U. after   10 cycles
 SCF Done:  E(RB3LYP) =  -435.167208175     A.U. after    9 cycles
 SCF Done:  E(RB3LYP) =  -435.167215868     A.U. after    8 cycles
 SCF Done:  E(RB3LYP) =  -435.167219237     A.U. after    8 cycles
 SCF Done:  E(RB3LYP) =  -435.167219942     A.U. after    7 cycles
 Optimization completed.
    -- Stationary point found.
 Normal termination of Gaussian 16 at Mon May 31 22:34:43 2021.

 ----------------------------------------------------------------------
 #N Geom=AllCheck Guess=TCheck SCRF=Check GenChk RB3LYP/6-31G(2df,p) Fr
 eq
 ----------------------------------------------------------------------

 Structure from the checkpoint file:  "NCCpNpCCNNN.chk"
 -------------------
 Title Card Required
 -------------------
 Charge =  0 Multiplicity = 1

                         Standard orientation:
 ---------------------------------------------------------------------
 Center     Atomic      Atomic             Coordinates (Angstroms)
 Number     Number       Type             X           Y           Z
 ---------------------------------------------------------------------
      1          7           0       -4.033083    0.041732   -0.193569
      2          6           0       -2.833921   -0.608207    0.348218
      3          6           0       -1.569330    0.056924   -0.227193
      4          7           0       -1.515069    1.503458    0.011462
      5          6           0       -0.298416   -0.616808    0.299113
      6          6           0        0.980497   -0.105789   -0.364725
      7          7           0        2.158933   -0.749916    0.216720
      8          7           0        3.397330   -0.369762   -0.388698
      9          7           0        4.000559    0.757503    0.238177
     10          1           0       -4.857451   -0.251409    0.320087
     11          1           0       -4.179698   -0.251632   -1.155425
     12          1           0       -2.795698   -1.695675    0.162869
     13          1           0       -2.840160   -0.470290    1.437409
     14          1           0       -1.601146   -0.079564   -1.320375
     15          1           0       -1.394865    1.663292    1.010784
     16          1           0       -2.434406    1.880117   -0.212218
     17          1           0       -0.380385   -1.701957    0.149018
     18          1           0       -0.220276   -0.461077    1.383812
     19          1           0        1.056397    0.975144   -0.209190
     20          1           0        0.915553   -0.262543   -1.459103
     21          1           0        2.089369   -1.758483    0.116368
     22          1           0        3.234306   -0.086832   -1.355316
     23          1           0        4.387535    0.419021    1.114771
     24          1           0        3.287265    1.444064    0.495392
 ---------------------------------------------------------------------

 SCF Done:  E(RB3LYP) =  -435.167219942     A.U. after    1 cycles

 The electronic state is 1-A.
 Alpha  occ. eigenvalues --  -14.35206 -14.32868 -14.32236 -14.31688 -14.29909
 Alpha  occ. eigenvalues --  -10.20831 -10.20613 -10.19999 -10.18241  -0.98357
 Alpha  occ. eigenvalues --   -0.89924  -0.86478  -0.85624  -0.76222  -0.70923
 Alpha  occ. eigenvalues --   -0.66881  -0.61223  -0.57870  -0.50714  -0.49130
 Alpha  occ. eigenvalues --   -0.48831  -0.47488  -0.46880  -0.45313  -0.43884
 Alpha  occ. eigenvalues --   -0.42717  -0.41410  -0.39453  -0.36592  -0.34696
 Alpha  occ. eigenvalues --   -0.34351  -0.33391  -0.25330  -0.24885  -0.23415
 Alpha  occ. eigenvalues --   -0.22916  -0.22701
 Alpha virt. eigenvalues --    0.07101   0.08756   0.09516   0.09939   0.11762
 Alpha virt. eigenvalues --    0.12214   0.13567   0.14624   0.15367   0.16174
 Alpha virt. eigenvalues --    0.17323   0.18113   0.18606   0.19498   0.20662

 Mulliken charges:
               1
     1  N   -0.513660
     2  C   -0.162600
     3  C    0.053798
     4  N   -0.509193
     5  C   -0.201709
     6  C   -0.132073
     7  N   -0.271671
     8  N   -0.263012
     9  N   -0.435658
    10  H    0.230725
    11  H    0.226806
    12  H    0.077043
    13  H    0.094685
    14  H    0.070927
    15  H    0.213609
    16  H    0.235562
    17  H    0.088526
    18  H    0.101064
    19  H    0.123022
    20  H    0.074225
    21  H    0.222059
    22  H    0.221423
    23  H    0.238526
    24  H    0.217578
 Sum of Mulliken charges =  -0.00000

 Dipole moment (field-independent basis, Debye):
    X=             -3.6133    Y=             -1.4944    Z=              0.4852  Tot=              3.9401
 Quadrupole moment (field-independent basis, Debye-Ang):
   XX=            -61.3487   YY=            -57.6660   ZZ=            -53.2668
   XY=              3.6815   XZ=              2.1265   YZ=              3.2169

  Exact polarizability: 104.776   2.886  76.114   2.304   1.298  72.143
 Approx polarizability: 119.327   2.424 113.536   3.213   1.916 112.177

                      1                      2                      3
                      A                      A                      A
 Frequencies --     45.3173                49.0800                94.4721
 Red. masses --      3.2410                 3.5593                 3.3453
 Frc consts  --      0.0039                 0.0051                 0.0176
 IR Inten    --      1.0268                 0.8877                 0.1599

                      4                      5                      6
                      A                      A                      A
 Frequencies --    123.6751               141.3510               163.6512
 Red. masses --      2.9585                 2.0631                 2.2598
 Frc consts  --      0.0267                 0.0243                 0.0357
 IR Inten    --      2.2064                 3.2996                 1.1972

                      7                      8                      9
                      A                      A                      A
 Frequencies --    238.8895               246.3362               289.1604
 Red. masses --      2.0041                 1.3365                 3.0363
 Frc consts  --      0.0674                 0.0478                 0.1496
 IR Inten    --      5.0753                25.1733                10.5940

                     10                     11                     12
                      A                      A                      A
 Frequencies --    303.6791               321.4649               370.7402
 Red. masses --      1.4252                 1.4812                 1.8967
 Frc consts  --      0.0774                 0.0902                 0.1536
 IR Inten    --     48.1918                 9.4275                11.7360

                     13                     14                     15
                      A                      A                      A
 Frequencies --    452.7896               480.4582               521.4169
 Red. masses --      2.1391                 2.3674                 2.5042
 Frc consts  --      0.2584                 0.3220                 0.4011
 IR Inten    --      5.0118                12.1883                27.4119

                     16                     17                     18
                      A                      A                      A
 Frequencies --    572.3724               759.1529               799.1889
 Red. masses --      2.9192                 1.8450                 1.3079
 Frc consts  --      0.5635                 0.6265                 0.4922
 IR Inten    --     35.7735                40.9478                 8.7344

                     19                     20                     21
                      A                      A                      A
 Frequencies --    824.7720               845.6901               891.2073
 Red. masses --      1.5981                 2.1351                 1.9970
 Frc consts  --      0.6405                 0.8997                 0.9345
 IR Inten    --     50.8588                79.4826               111.7509

                     22                     23                     24
                      A                      A                      A
 Frequencies --    940.0791               969.4767               993.1073
 Red. masses --      1.3136                 2.3371                 1.6399
 Frc consts  --      0.6840                 1.2942                 0.9530
 IR Inten    --     40.8968                26.8998                29.6968

                     25                     26                     27
                      A                      A                      A
 Frequencies --   1005.8484              1034.4300              1052.1660
 Red. masses --      1.8659                 1.3865                 2.0926
 Frc consts  --      1.1122                 0.8741                 1.3649
 IR Inten    --    132.5631                13.2613                 7.0628

                     28                     29                     30
                      A                      A                      A
 Frequencies --   1087.3387              1096.4712              1099.0125
 Red. masses --      2.5379                 1.9875                 2.7045
 Frc consts  --      1.7679                 1.4078                 1.9246
 IR Inten    --      1.0030                 0.8493                43.8897

                     31                     32                     33
                      A                      A                      A
 Frequencies --   1166.6615              1176.8277              1182.7393
 Red. masses --      1.8202                 1.6260                 1.6182
 Frc consts  --      1.4597                 1.3267                 1.3337
 IR Inten    --     12.0068                 0.4054                26.9616

                     34                     35                     36
                      A                      A                      A
 Frequencies --   1226.3112              1279.9196              1299.4869
 Red. masses --      1.8630                 1.2623                 1.2516
 Frc consts  --      1.6507                 1.2184                 1.2452
 IR Inten    --     18.4129                 2.2801                 5.8434

                     37                     38                     39
                      A                      A                      A
 Frequencies --   1310.4721              1331.9661              1344.6540
 Red. masses --      1.2063                 1.2632                 1.2160
 Frc consts  --      1.2206                 1.3204                 1.2954
 IR Inten    --      3.2868                 6.7075                 2.2151

                     40                     41                     42
                      A                      A                      A
 Frequencies --   1369.6193              1401.8987              1409.7573
 Red. masses --      1.3270                 1.3516                 1.4308
 Frc consts  --      1.4666                 1.5651                 1.6754
 IR Inten    --      3.3043                 3.0907                18.4892

                     43                     44                     45
                      A                      A                      A
 Frequencies --   1424.1957              1480.7834              1484.6921
 Red. masses --      1.5434                 1.1367                 1.0924
 Frc consts  --      1.8445                 1.4686                 1.4187
 IR Inten    --      1.6547                 1.8011                 6.7467

                     46                     47                     48
                      A                      A                      A
 Frequencies --   1499.2064              1508.3185              1532.4448
 Red. masses --      1.0889                 1.1047                 1.1024
 Frc consts  --      1.4420                 1.4808                 1.5253
 IR Inten    --      1.3147                 2.1895                 1.4115

                     49                     50                     51
                      A                      A                      A
 Frequencies --   1658.5437              1665.2113              1689.0461
 Red. masses --      1.0889                 1.0862                 1.0629
 Frc consts  --      1.7649                 1.7746                 1.7866
 IR Inten    --     21.9306                26.5731                11.4748

                     52                     53                     54
                      A                      A                      A
 Frequencies --   2912.8126              2946.7344              2973.7964
 Red. masses --      1.0728                 1.0704                 1.0808
 Frc consts  --      5.3626                 5.4762                 5.6314
 IR Inten    --     60.7484                69.8384                26.7706

                     55                     56                     57
                      A                      A                      A
 Frequencies --   3010.2670              3038.1636              3048.2825
 Red. masses --      1.0591                 1.0929                 1.0967
 Frc consts  --      5.6545                 5.9436                 6.0039
 IR Inten    --     30.5912                10.1158                54.4988

                     58                     59                     60
                      A                      A                      A
 Frequencies --   3076.1560              3397.7036              3423.5604
 Red. masses --      1.0897                 1.0556                 1.0738
 Frc consts  --      6.0756                 7.1798                 7.4152
 IR Inten    --     31.4328                10.6828                 9.1198

                     61                     62                     63
                      A                      A                      A
 Frequencies --   3455.0030              3492.9140              3494.7535
 Red. masses --      1.0496                 1.0501                 1.0748
 Frc consts  --      7.3823                 7.5487                 7.7339
 IR Inten    --      3.5733                 0.2258                 1.7114

                     64                     65                     66
                      A                      A                      A
 Frequencies --   3530.7277              3532.0493              3572.9074
 Red. masses --      1.0843                 1.0899                 1.0917
 Frc consts  --      7.9640                 8.0111                 8.2108
 IR Inten    --      0.2916                 4.6999                 0.5439

 - Thermochemistry -
 -------------------
 Temperature   298.150 Kelvin.  Pressure   1.00000 Atm.
 Atom     1 has atomic number  7 and mass  14.00307

 Molecular mass:   133.13275 amu.
 Principal axes and moments of inertia in atomic units:
                           1         2         3
     Eigenvalues --   359.040123525.580213722.39064
           X            0.99998   0.00646   0.00053
           Y           -0.00647   0.99981   0.01851
           Z           -0.00041  -0.01851   0.99983
 This molecule is an asymmetric top.
 Rotational symmetry number  1.
 Rotational temperatures (Kelvin)      0.24124     0.02457     0.02327
 Rotational constants (GHZ):           5.02657     0.51190     0.48483
 Zero-point vibrational energy     575172.8 (Joules/Mol)
                                  137.46960 (Kcal/Mol)
 Warning -- explicit consideration of  16 degrees of freedom as
           vibrations may cause significant error
 Vibrational temperatures:     65.20    70.62   135.92   177.94   203.37
          (Kelvin)            235.46   343.71   354.42   416.04   436.93
                              462.52   533.41   651.46   691.27   750.20
                              823.52  1092.25  1149.85  1186.66  1216.76
                             1282.25  1352.56  1394.86  1428.86  1447.19
                             1488.31  1513.83  1564.44  1577.58  1581.23
                             1678.57  1693.19  1701.70  1764.39  1841.52
                             1869.67  1885.48  1916.40  1934.66  1970.58
                             2017.02  2028.33  2049.10  2130.52  2136.14
                             2157.02  2170.13  2204.85  2386.27  2395.87
                             2430.16  4190.89  4239.69  4278.63  4331.10
                             4371.24  4385.80  4425.90  4888.54  4925.74
                             4970.98  5025.52  5028.17  5079.93  5081.83
                             5140.62

 Zero-point correction=                           0.219072 (Hartree/Particle)
 Thermal correction to Energy=                    0.230610
 Thermal correction to Enthalpy=                  0.231554
 Thermal correction to Gibbs Free Energy=         0.181254
 Sum of electronic and zero-point Energies=           -434.948148
 Sum of electronic and thermal Energies=              -434.936610
 Sum of electronic and thermal Enthalpies=            -434.935666
 Sum of electronic and thermal Free Energies=         -434.985966

                     E (Thermal)             CV                S
                      KCal/Mol        Cal/Mol-Kelvin    Cal/Mol-Kelvin
 Total                  144.710             41.308            105.866
 Electronic               0.000              0.000              0.000
 Translational            0.889              2.981             40.571
 Rotational               0.889              2.981             29.934
 Vibrational            142.933             35.347             35.361
 Vibration     1          0.595              1.979              5.012
 Vibration     2          0.595              1.978              4.854
 Vibration     3          0.603              1.953              3.565
 Vibration     4          0.610              1.929              3.042
 Vibration     5          0.615              1.912              2.786
 Vibration     6          0.623              1.887              2.507
 Vibration     7          0.657              1.781              1.811
 Vibration     8          0.661              1.769              1.757
 Vibration     9          0.686              1.694              1.479
 Vibration    10          0.695              1.667              1.397
 Vibration    11          0.707              1.632              1.303
 Vibration    12          0.743              1.532              1.077
 Vibration    13          0.811              1.355              0.787
 Vibration    14          0.837              1.293              0.709
 Vibration    15          0.876              1.203              0.607
 Vibration    16          0.929              1.091              0.500

 Optimization completed.
    -- Stationary point found.
 Normal termination of Gaussian 16 at Mon May 31 23:18:48 2021.
