 Gaussian 16, Revision A.03,
 Gaussian 16:  ES64L-G16RevA.03 25-Dec-2016

 -----------------------------
 # opt freq b3lyp/6-31g(2df,p)
 -----------------------------

 -------------------
 Title Card Required
 -------------------
 Symbolic Z-matrix:
 Charge =  0 Multiplicity = 1

 SCF Done:  E(RB3LYP) =  -401.905374762     A.U. after   13 cycles
 SCF Done:  E(RB3LYP) =  -401.911846026     A.U. after   11 cycles
 SCF Done:  E(RB3LYP) =  -401.914447965     A.U. after   11 cycles
 SCF Done:  E(RB3LYP) =  -401.916269258     A.U. after   11 cycles
 SCF Done:  E(RB3LYP) =  -401.917818887     A.U. after   11 cycles
 SCF Done:  E(RB3LYP) =  -401.918910240     A.U. after   11 cycles
 SCF Done:  E(RB3LYP) =  -401.919692695     A.U. after   11 cycles
 SCF Done:  E(RB3LYP) =  -401.920243017     A.U. after   11 cycles
 SCF Done:  E(RB3LYP) =  -401.920622006     A.U. after   11 cycles
 SCF Done:  E(RB3LYP) =  -401.920643357     A.U. after   10 cycles
 SCF Done:  E(RB3LYP) =  -401.920674617     A.U. after    9 cycles
 SCF Done:  E(RB3LYP) =  -401.920768329     A.U. after   10 cycles
 SCF Done:  E(RB3LYP) =  -401.920783931     A.U. after   10 cycles
 SCF Done:  E(RB3LYP) =  -401.920781802     A.U. after    9 cycles
 SCF Done:  E(RB3LYP) =  -401.920786159     A.U. after    9 cycles
 Optimization completed.
    -- Stationary point found.
 Normal termination of Gaussian 16 at Tue Jun  1 03:38:31 2021.

 ----------------------------------------------------------------------
 #N Geom=AllCheck Guess=TCheck SCRF=Check GenChk RB3LYP/6-31G(2df,p) Fr
 eq
 ----------------------------------------------------------------------

 Structure from the checkpoint file:  "NCdCCCpCNpCN.chk"
 -------------------
 Title Card Required
 -------------------
 Charge =  0 Multiplicity = 1

                         Standard orientation:
 ---------------------------------------------------------------------
 Center     Atomic      Atomic             Coordinates (Angstroms)
 Number     Number       Type             X           Y           Z
 ---------------------------------------------------------------------
      1          7           0       -3.905286   -0.068397   -0.015689
      2          6           0       -2.624293   -0.539736    0.304245
      3          6           0       -1.546358   -0.504382   -0.482614
      4          6           0       -0.231554   -1.137221   -0.133387
      5          6           0        0.996733   -0.200467   -0.214632
      6          6           0        0.822723    1.101732    0.590465
      7          7           0        0.203689    2.153782   -0.233268
      8          6           0        2.259910   -0.960349    0.218969
      9          7           0        3.473862   -0.199967   -0.102159
     10          1           0       -4.394512    0.336595    0.771433
     11          1           0       -3.908939    0.579405   -0.793790
     12          1           0       -2.578966   -1.036754    1.271824
     13          1           0       -1.604894    0.009750   -1.440134
     14          1           0       -0.036423   -1.996129   -0.794743
     15          1           0       -0.291277   -1.552405    0.883065
     16          1           0        1.132131    0.084618   -1.269648
     17          1           0        1.801847    1.395105    0.994821
     18          1           0        0.154709    0.912685    1.440063
     19          1           0        0.888748    2.482261   -0.909649
     20          1           0       -0.008785    2.958237    0.350480
     21          1           0        2.241896   -1.968998   -0.228081
     22          1           0        2.236630   -1.104465    1.307638
     23          1           0        3.610438   -0.189592   -1.109315
     24          1           0        4.288564   -0.665706    0.285575
 ---------------------------------------------------------------------

 SCF Done:  E(RB3LYP) =  -401.920786159     A.U. after    1 cycles

 The electronic state is 1-A.
 Alpha  occ. eigenvalues --  -14.31811 -14.30412 -14.29409 -10.19599 -10.19108
 Alpha  occ. eigenvalues --  -10.18381 -10.17144 -10.16881 -10.14730  -0.88810
 Alpha  occ. eigenvalues --   -0.87666  -0.85906  -0.77792  -0.71967  -0.64039
 Alpha  occ. eigenvalues --   -0.63338  -0.55927  -0.55045  -0.48924  -0.47703
 Alpha  occ. eigenvalues --   -0.46755  -0.45664  -0.44453  -0.43028  -0.41917
 Alpha  occ. eigenvalues --   -0.38639  -0.37492  -0.35817  -0.34189  -0.33518
 Alpha  occ. eigenvalues --   -0.31897  -0.31073  -0.30715  -0.23762  -0.21898
 Alpha  occ. eigenvalues --   -0.18321
 Alpha virt. eigenvalues --    0.06027   0.08586   0.09592   0.09981   0.10997
 Alpha virt. eigenvalues --    0.12171   0.13563   0.16036   0.16605   0.17071
 Alpha virt. eigenvalues --    0.17468   0.17796   0.18564   0.19884   0.20257

 Mulliken charges:
               1
     1  N   -0.515539
     2  C    0.005285
     3  C   -0.063982
     4  C   -0.255021
     5  C    0.080198
     6  C   -0.154310
     7  N   -0.510758
     8  C   -0.175695
     9  N   -0.510350
    10  H    0.238994
    11  H    0.240677
    12  H    0.081442
    13  H    0.064301
    14  H    0.088698
    15  H    0.083977
    16  H    0.058489
    17  H    0.097813
    18  H    0.090056
    19  H    0.218706
    20  H    0.218058
    21  H    0.075292
    22  H    0.098250
    23  H    0.220769
    24  H    0.224649
 Sum of Mulliken charges =  -0.00000

 Dipole moment (field-independent basis, Debye):
    X=              0.9016    Y=              0.7077    Z=              0.3576  Tot=              1.2007
 Quadrupole moment (field-independent basis, Debye-Ang):
   XX=            -51.6829   YY=            -55.1222   ZZ=            -53.3476
   XY=             -7.9049   XZ=             -5.0573   YZ=             -0.8059

  Exact polarizability: 118.479  -6.633  78.367  -7.117  -3.624  76.390
 Approx polarizability: 149.056  -7.494 108.053 -15.436  -5.912 123.254

                      1                      2                      3
                      A                      A                      A
 Frequencies --     53.8608                66.8272                78.3585
 Red. masses --      3.2587                 3.4622                 2.7807
 Frc consts  --      0.0056                 0.0091                 0.0101
 IR Inten    --      0.7452                 2.0058                 0.9605

                      4                      5                      6
                      A                      A                      A
 Frequencies --    131.4845               146.3388               220.5731
 Red. masses --      1.9732                 2.1157                 1.2890
 Frc consts  --      0.0201                 0.0267                 0.0370
 IR Inten    --      8.0191                 2.4951                24.6621

                      7                      8                      9
                      A                      A                      A
 Frequencies --    234.3955               242.1663               266.1987
 Red. masses --      2.3491                 1.3354                 1.8794
 Frc consts  --      0.0760                 0.0461                 0.0785
 IR Inten    --     14.5113                22.8029                11.7914

                     10                     11                     12
                      A                      A                      A
 Frequencies --    289.3518               335.8067               356.6156
 Red. masses --      1.7868                 3.7910                 1.6715
 Frc consts  --      0.0881                 0.2519                 0.1252
 IR Inten    --     12.5965                 2.9582                36.5970

                     13                     14                     15
                      A                      A                      A
 Frequencies --    374.4295               458.0308               535.1191
 Red. masses --      1.8057                 2.7590                 2.5576
 Frc consts  --      0.1492                 0.3410                 0.4315
 IR Inten    --     15.0049                 2.2171                30.6978

                     16                     17                     18
                      A                      A                      A
 Frequencies --    564.6504               708.5652               801.6951
 Red. masses --      2.9550                 1.3021                 1.8716
 Frc consts  --      0.5551                 0.3852                 0.7087
 IR Inten    --      2.6858               287.3965                50.6285

                     19                     20                     21
                      A                      A                      A
 Frequencies --    822.0079               844.0749               868.5438
 Red. masses --      1.5107                 1.3010                 1.6609
 Frc consts  --      0.6014                 0.5461                 0.7382
 IR Inten    --     34.0128                96.9378                53.4347

                     22                     23                     24
                      A                      A                      A
 Frequencies --    925.7854               944.3412               976.2390
 Red. masses --      1.7872                 2.2470                 1.1269
 Frc consts  --      0.9025                 1.1806                 0.6328
 IR Inten    --     21.6214                17.7002                26.8207

                     25                     26                     27
                      A                      A                      A
 Frequencies --    985.8627              1042.0424              1051.6175
 Red. masses --      1.8459                 1.6517                 1.7503
 Frc consts  --      1.0571                 1.0567                 1.1405
 IR Inten    --     13.8928                 1.6265                 2.8723

                     28                     29                     30
                      A                      A                      A
 Frequencies --   1075.9628              1089.6651              1115.4560
 Red. masses --      2.7653                 1.9048                 1.2443
 Frc consts  --      1.8862                 1.3325                 0.9122
 IR Inten    --      2.6623                 4.4271                 4.0976

                     31                     32                     33
                      A                      A                      A
 Frequencies --   1134.3485              1164.9927              1168.1390
 Red. masses --      2.3608                 1.5662                 1.8961
 Frc consts  --      1.7898                 1.2524                 1.5244
 IR Inten    --     21.1473                 3.6679                12.9613

                     34                     35                     36
                      A                      A                      A
 Frequencies --   1239.9852              1279.3998              1296.9253
 Red. masses --      1.8858                 1.3319                 1.1965
 Frc consts  --      1.7084                 1.2845                 1.1857
 IR Inten    --     49.8984                10.3095                 2.2172

                     37                     38                     39
                      A                      A                      A
 Frequencies --   1324.2936              1333.3575              1339.4782
 Red. masses --      1.2308                 1.2510                 1.2589
 Frc consts  --      1.2718                 1.3104                 1.3308
 IR Inten    --      2.5775                 2.7583                 0.4917

                     40                     41                     42
                      A                      A                      A
 Frequencies --   1363.1153              1370.6210              1396.3541
 Red. masses --      1.2810                 1.3360                 1.3799
 Frc consts  --      1.4024                 1.4788                 1.5852
 IR Inten    --      0.3104                 2.0251                 0.3064

                     43                     44                     45
                      A                      A                      A
 Frequencies --   1419.1525              1434.6005              1478.6212
 Red. masses --      1.4411                 1.4061                 1.1033
 Frc consts  --      1.7100                 1.7050                 1.4212
 IR Inten    --     10.9491                 7.7402                 3.4387

                     46                     47                     48
                      A                      A                      A
 Frequencies --   1500.1202              1509.7860              1649.9695
 Red. masses --      1.0819                 1.0894                 1.1296
 Frc consts  --      1.4344                 1.4631                 1.8119
 IR Inten    --      6.9541                 4.3923                25.0492

                     49                     50                     51
                      A                      A                      A
 Frequencies --   1655.7486              1657.7763              1749.4247
 Red. masses --      1.0894                 1.0877                 5.2067
 Frc consts  --      1.7596                 1.7612                 9.3886
 IR Inten    --     15.8134                24.5861               101.0280

                     52                     53                     54
                      A                      A                      A
 Frequencies --   2947.7128              2972.4220              2981.3928
 Red. masses --      1.0709                 1.0687                 1.0768
 Frc consts  --      5.4825                 5.5634                 5.6395
 IR Inten    --     57.5432                70.3708                19.5267

                     55                     56                     57
                      A                      A                      A
 Frequencies --   2994.3499              3019.4562              3034.0544
 Red. masses --      1.0630                 1.0937                 1.0916
 Frc consts  --      5.6154                 5.8748                 5.9203
 IR Inten    --     39.3631                10.8797                58.4046

                     58                     59                     60
                      A                      A                      A
 Frequencies --   3047.0423              3140.5386              3146.2704
 Red. masses --      1.0984                 1.0903                 1.0862
 Frc consts  --      6.0084                 6.3358                 6.3354
 IR Inten    --     46.3566                 5.2309                33.8254

                     61                     62                     63
                      A                      A                      A
 Frequencies --   3472.7979              3485.0491              3531.3097
 Red. masses --      1.0496                 1.0496                 1.0474
 Frc consts  --      7.4580                 7.5112                 7.6957
 IR Inten    --      2.0440                 1.1219                 3.9146

                     64                     65                     66
                      A                      A                      A
 Frequencies --   3550.2397              3563.3775              3626.4940
 Red. masses --      1.0915                 1.0918                 1.0961
 Frc consts  --      8.1058                 8.1680                 8.4929
 IR Inten    --      0.3390                 0.2483                 4.7265

 - Thermochemistry -
 -------------------
 Temperature   298.150 Kelvin.  Pressure   1.00000 Atm.
 Atom     1 has atomic number  7 and mass  14.00307

 Molecular mass:   129.12660 amu.
 Principal axes and moments of inertia in atomic units:
                           1         2         3
     Eigenvalues --   609.264482475.839062903.18762
           X            0.99993  -0.01151  -0.00312
           Y            0.01149   0.99991  -0.00743
           Z            0.00320   0.00740   0.99997
 This molecule is an asymmetric top.
 Rotational symmetry number  1.
 Warning -- assumption of classical behavior for rotation
           may cause significant error
 Rotational temperatures (Kelvin)      0.14216     0.03498     0.02983
 Rotational constants (GHZ):           2.96216     0.72894     0.62164
 Zero-point vibrational energy     571724.0 (Joules/Mol)
                                  136.64531 (Kcal/Mol)
 Warning -- explicit consideration of  16 degrees of freedom as
           vibrations may cause significant error
 Vibrational temperatures:     77.49    96.15   112.74   189.18   210.55
          (Kelvin)            317.36   337.24   348.42   383.00   416.31
                              483.15   513.09   538.72   659.00   769.92
                              812.41  1019.47  1153.46  1182.69  1214.44
                             1249.64  1332.00  1358.70  1404.59  1418.44
                             1499.27  1513.04  1548.07  1567.79  1604.89
                             1632.07  1676.16  1680.69  1784.06  1840.77
                             1865.99  1905.36  1918.40  1927.21  1961.22
                             1972.02  2009.04  2041.84  2064.07  2127.41
                             2158.34  2172.25  2373.94  2382.25  2385.17
                             2517.03  4241.10  4276.65  4289.56  4308.20
                             4344.32  4365.33  4384.01  4518.53  4526.78
                             4996.58  5014.21  5080.77  5108.00  5126.91
                             5217.72

 Zero-point correction=                           0.217758 (Hartree/Particle)
 Thermal correction to Energy=                    0.229346
 Thermal correction to Enthalpy=                  0.230290
 Thermal correction to Gibbs Free Energy=         0.180359
 Sum of electronic and zero-point Energies=           -401.703028
 Sum of electronic and thermal Energies=              -401.691441
 Sum of electronic and thermal Enthalpies=            -401.690496
 Sum of electronic and thermal Free Energies=         -401.740427

                     E (Thermal)             CV                S
                      KCal/Mol        Cal/Mol-Kelvin    Cal/Mol-Kelvin
 Total                  143.917             41.758            105.089
 Electronic               0.000              0.000              0.000
 Translational            0.889              2.981             40.480
 Rotational               0.889              2.981             29.861
 Vibrational            142.139             35.796             34.748
 Vibration     1          0.596              1.976              4.670
 Vibration     2          0.598              1.970              4.245
 Vibration     3          0.600              1.964              3.932
 Vibration     4          0.612              1.922              2.924
 Vibration     5          0.617              1.907              2.719
 Vibration     6          0.647              1.810              1.954
 Vibration     7          0.654              1.788              1.845
 Vibration     8          0.658              1.776              1.787
 Vibration     9          0.672              1.735              1.621
 Vibration    10          0.686              1.694              1.478
 Vibration    11          0.717              1.604              1.232
 Vibration    12          0.732              1.562              1.137
 Vibration    13          0.746              1.525              1.062
 Vibration    14          0.816              1.343              0.772
 Vibration    15          0.890              1.172              0.576
 Vibration    16          0.920              1.108              0.515

                           ! Non-Optimized Parameters !
 Normal termination of Gaussian 16 at Tue Jun  1 04:12:53 2021.
