 Gaussian 16, Revision A.03,
 Gaussian 16:  ES64L-G16RevA.03 25-Dec-2016

 -----------------------------
 # opt freq b3lyp/6-31g(2df,p)
 -----------------------------

 -------------------
 Title Card Required
 -------------------
 Symbolic Z-matrix:
 Charge =  0 Multiplicity = 1

 SCF Done:  E(RB3LYP) =  -417.919362954     A.U. after   13 cycles
 SCF Done:  E(RB3LYP) =  -417.926488607     A.U. after   11 cycles
 SCF Done:  E(RB3LYP) =  -417.928051919     A.U. after   11 cycles
 SCF Done:  E(RB3LYP) =  -417.928866619     A.U. after   11 cycles
 SCF Done:  E(RB3LYP) =  -417.930841879     A.U. after   12 cycles
 SCF Done:  E(RB3LYP) =  -417.932499485     A.U. after   11 cycles
 SCF Done:  E(RB3LYP) =  -417.934517160     A.U. after   11 cycles
 SCF Done:  E(RB3LYP) =  -417.935204448     A.U. after   10 cycles
 SCF Done:  E(RB3LYP) =  -417.935456281     A.U. after   10 cycles
 SCF Done:  E(RB3LYP) =  -417.935517493     A.U. after    9 cycles
 SCF Done:  E(RB3LYP) =  -417.935538399     A.U. after    9 cycles
 SCF Done:  E(RB3LYP) =  -417.935543212     A.U. after    8 cycles
 SCF Done:  E(RB3LYP) =  -417.935543592     A.U. after    7 cycles
 SCF Done:  E(RB3LYP) =  -417.935543691     A.U. after    6 cycles
 SCF Done:  E(RB3LYP) =  -417.935543766     A.U. after    6 cycles
 Optimization completed.
    -- Stationary point found.
 Normal termination of Gaussian 16 at Mon May 31 15:08:25 2021.

 ----------------------------------------------------------------------
 #N Geom=AllCheck Guess=TCheck SCRF=Check GenChk RB3LYP/6-31G(2df,p) Fr
 eq
 ----------------------------------------------------------------------

 Structure from the checkpoint file:  "NCdCCCpNpCNN.chk"
 -------------------
 Title Card Required
 -------------------
 Charge =  0 Multiplicity = 1

                         Standard orientation:
 ---------------------------------------------------------------------
 Center     Atomic      Atomic             Coordinates (Angstroms)
 Number     Number       Type             X           Y           Z
 ---------------------------------------------------------------------
      1          7           0       -4.257679    0.412593   -0.091952
      2          6           0       -3.034487   -0.070535    0.374660
      3          6           0       -2.039869   -0.579180   -0.361222
      4          6           0       -0.692640   -0.960628    0.180346
      5          6           0        0.447765   -0.030785   -0.304191
      6          7           0        0.293497    1.374556    0.096433
      7          6           0        1.817183   -0.523223    0.172213
      8          7           0        2.880383    0.254137   -0.448173
      9          7           0        4.171874    0.069948    0.128800
     10          1           0       -5.034310    0.261294    0.536184
     11          1           0       -4.492013    0.118305   -1.030891
     12          1           0       -2.906044    0.052574    1.448655
     13          1           0       -2.187149   -0.701802   -1.434847
     14          1           0       -0.446852   -1.991757   -0.112724
     15          1           0       -0.714834   -0.945290    1.279168
     16          1           0        0.460763   -0.043430   -1.402002
     17          1           0        0.213702    1.422210    1.111120
     18          1           0       -0.590236    1.727506   -0.261233
     19          1           0        1.945172   -1.581328   -0.091704
     20          1           0        1.851792   -0.469669    1.282423
     21          1           0        2.642609    1.237126   -0.363371
     22          1           0        4.559945   -0.783305   -0.264916
     23          1           0        4.093213   -0.094962    1.137536
 ---------------------------------------------------------------------

 SCF Done:  E(RB3LYP) =  -417.935543766     A.U. after    1 cycles

 The electronic state is 1-A.
 Alpha  occ. eigenvalues --  -14.33622 -14.31957 -14.31621 -14.30353 -10.21201
 Alpha  occ. eigenvalues --  -10.20368 -10.19374 -10.17898 -10.16522  -0.94139
 Alpha  occ. eigenvalues --   -0.90718  -0.87974  -0.77358  -0.76370  -0.69812
 Alpha  occ. eigenvalues --   -0.64104  -0.58003  -0.56940  -0.50930  -0.49878
 Alpha  occ. eigenvalues --   -0.47866  -0.47074  -0.45741  -0.43737  -0.42269
 Alpha  occ. eigenvalues --   -0.40373  -0.40222  -0.36969  -0.35814  -0.34532
 Alpha  occ. eigenvalues --   -0.33412  -0.32545  -0.24590  -0.22955  -0.21427
 Alpha  occ. eigenvalues --   -0.20218
 Alpha virt. eigenvalues --    0.04102   0.08161   0.08420   0.09803   0.10220
 Alpha virt. eigenvalues --    0.12804   0.13178   0.15311   0.15589   0.16233
 Alpha virt. eigenvalues --    0.17180   0.17549   0.18824   0.19191   0.20933

 Mulliken charges:
               1
     1  N   -0.510149
     2  C    0.019995
     3  C   -0.111837
     4  C   -0.238571
     5  C    0.023642
     6  N   -0.513633
     7  C   -0.110336
     8  N   -0.274995
     9  N   -0.468283
    10  H    0.246448
    11  H    0.244030
    12  H    0.089794
    13  H    0.064618
    14  H    0.092898
    15  H    0.081821
    16  H    0.090340
    17  H    0.215131
    18  H    0.231232
    19  H    0.089710
    20  H    0.055556
    21  H    0.240837
    22  H    0.234660
    23  H    0.207092
 Sum of Mulliken charges =  -0.00000

 Dipole moment (field-independent basis, Debye):
    X=             -3.7389    Y=             -1.7666    Z=              1.5825  Tot=              4.4277
 Quadrupole moment (field-independent basis, Debye-Ang):
   XX=            -51.6700   YY=            -58.9493   ZZ=            -53.0391
   XY=             -4.7796   XZ=              4.2607   YZ=              1.7698

  Exact polarizability: 123.496 -10.268  69.335  -1.132   2.655  74.470
 Approx polarizability: 146.469 -18.053 106.318  -6.840   6.307 119.499

                      1                      2                      3
                      A                      A                      A
 Frequencies --     50.3865                59.3694               117.4907
 Red. masses --      4.0944                 4.0258                 2.7502
 Frc consts  --      0.0061                 0.0084                 0.0224
 IR Inten    --      0.6385                 0.1897                 0.5713

                      4                      5                      6
                      A                      A                      A
 Frequencies --    120.2663               160.4552               196.9210
 Red. masses --      2.1331                 1.9599                 2.7098
 Frc consts  --      0.0182                 0.0297                 0.0619
 IR Inten    --      1.5261                 9.1579                 1.1517

                      7                      8                      9
                      A                      A                      A
 Frequencies --    273.7661               285.0396               315.6369
 Red. masses --      1.5163                 1.8379                 4.3314
 Frc consts  --      0.0670                 0.0880                 0.2542
 IR Inten    --     29.6094                 6.2966                 6.9246

                     10                     11                     12
                      A                      A                      A
 Frequencies --    322.0349               354.9678               374.2570
 Red. masses --      2.2531                 1.2329                 1.2832
 Frc consts  --      0.1377                 0.0915                 0.1059
 IR Inten    --     11.4035                31.6669                46.1889

                     13                     14                     15
                      A                      A                      A
 Frequencies --    394.5148               467.3947               546.1849
 Red. masses --      2.4949                 1.9897                 3.1333
 Frc consts  --      0.2288                 0.2561                 0.5507
 IR Inten    --      7.3427                 1.8614                 2.7424

                     16                     17                     18
                      A                      A                      A
 Frequencies --    576.4893               668.2446               818.4928
 Red. masses --      2.4208                 1.3592                 1.9766
 Frc consts  --      0.4740                 0.3576                 0.7802
 IR Inten    --     13.4778               275.3134                 7.6220

                     19                     20                     21
                      A                      A                      A
 Frequencies --    826.8070               867.6475               894.1671
 Red. masses --      1.8019                 2.7573                 1.5423
 Frc consts  --      0.7257                 1.2230                 0.7265
 IR Inten    --     99.7539                59.2965                26.1432

                     22                     23                     24
                      A                      A                      A
 Frequencies --    932.8384               974.2252               985.4778
 Red. masses --      1.6369                 1.4921                 1.2263
 Frc consts  --      0.8392                 0.8344                 0.7017
 IR Inten    --    112.4729                14.5064                23.4645

                     25                     26                     27
                      A                      A                      A
 Frequencies --    996.0002              1034.8100              1042.6763
 Red. masses --      1.3739                 1.7697                 2.3579
 Frc consts  --      0.8030                 1.1166                 1.5104
 IR Inten    --     64.8191                 7.5469                 4.6926

                     28                     29                     30
                      A                      A                      A
 Frequencies --   1097.5863              1137.5045              1155.1723
 Red. masses --      1.4049                 2.4068                 3.2870
 Frc consts  --      0.9972                 1.8349                 2.5843
 IR Inten    --     16.3735                 4.5927                 8.1940

                     31                     32                     33
                      A                      A                      A
 Frequencies --   1166.4093              1182.2493              1209.4215
 Red. masses --      1.7457                 1.6402                 1.4319
 Frc consts  --      1.3993                 1.3507                 1.2340
 IR Inten    --     14.6870                84.1150                 8.5611

                     34                     35                     36
                      A                      A                      A
 Frequencies --   1259.4845              1281.4881              1308.8805
 Red. masses --      1.6510                 1.2941                 1.3929
 Frc consts  --      1.5431                 1.2521                 1.4060
 IR Inten    --     32.2263                 2.8839                15.5217

                     37                     38                     39
                      A                      A                      A
 Frequencies --   1336.1393              1340.9567              1345.8024
 Red. masses --      1.3273                 1.2630                 1.3029
 Frc consts  --      1.3961                 1.3380                 1.3903
 IR Inten    --      0.9874                 4.6916                 5.5733

                     40                     41                     42
                      A                      A                      A
 Frequencies --   1381.0908              1389.5979              1421.4013
 Red. masses --      1.3750                 1.3431                 1.3979
 Frc consts  --      1.5453                 1.5281                 1.6640
 IR Inten    --      1.7560                 0.9187                 2.7482

                     43                     44                     45
                      A                      A                      A
 Frequencies --   1473.3557              1502.3230              1518.6598
 Red. masses --      1.1093                 1.1246                 1.1033
 Frc consts  --      1.4187                 1.4954                 1.4992
 IR Inten    --      3.5806                 0.8822                25.3893

                     46                     47                     48
                      A                      A                      A
 Frequencies --   1650.8527              1658.8616              1683.0157
 Red. masses --      1.1364                 1.0891                 1.0652
 Frc consts  --      1.8248                 1.7659                 1.7777
 IR Inten    --     23.3732                16.3067                16.2671

                     49                     50                     51
                      A                      A                      A
 Frequencies --   1743.2474              2864.1494              2990.7328
 Red. masses --      5.0974                 1.0725                 1.0596
 Frc consts  --      9.1267                 5.1838                 5.5841
 IR Inten    --    123.9210                76.4697                36.1833

                     52                     53                     54
                      A                      A                      A
 Frequencies --   3020.7848              3026.5150              3042.3935
 Red. masses --      1.0872                 1.0864                 1.0951
 Frc consts  --      5.8449                 5.8631                 5.9723
 IR Inten    --      9.6830                23.5693                66.9187

                     55                     56                     57
                      A                      A                      A
 Frequencies --   3117.5174              3148.7020              3360.1867
 Red. masses --      1.0879                 1.0884                 1.0570
 Frc consts  --      6.2294                 6.3576                 7.0316
 IR Inten    --     26.3622                18.8568                28.7864

                     58                     59                     60
                      A                      A                      A
 Frequencies --   3462.5747              3509.0605              3529.1639
 Red. masses --      1.0510                 1.0815                 1.0755
 Frc consts  --      7.4239                 7.8461                 7.8920
 IR Inten    --      1.0302                 3.4683                 7.9149

                     61                     62                     63
                      A                      A                      A
 Frequencies --   3545.3097              3546.2153              3643.9309
 Red. masses --      1.0483                 1.0880                 1.0970
 Frc consts  --      7.7631                 8.0610                 8.5822
 IR Inten    --     11.6801                 0.3685                 8.5428

 - Thermochemistry -
 -------------------
 Temperature   298.150 Kelvin.  Pressure   1.00000 Atm.
 Atom     1 has atomic number  7 and mass  14.00307

 Molecular mass:   130.12185 amu.
 Principal axes and moments of inertia in atomic units:
                           1         2         3
     Eigenvalues --   306.040303420.795953569.49882
           X            0.99998  -0.00490   0.00475
           Y            0.00485   0.99993   0.01081
           Z           -0.00480  -0.01078   0.99993
 This molecule is an asymmetric top.
 Rotational symmetry number  1.
 Rotational temperatures (Kelvin)      0.28301     0.02532     0.02427
 Rotational constants (GHZ):           5.89707     0.52758     0.50560
 Zero-point vibrational energy     542550.1 (Joules/Mol)
                                  129.67259 (Kcal/Mol)
 Warning -- explicit consideration of  16 degrees of freedom as
           vibrations may cause significant error
 Vibrational temperatures:     72.49    85.42   169.04   173.04   230.86
          (Kelvin)            283.33   393.89   410.11   454.13   463.34
                              510.72   538.47   567.62   672.48   785.84
                              829.44   961.45  1177.63  1189.59  1248.35
                             1286.51  1342.15  1401.69  1417.88  1433.02
                             1488.86  1500.18  1579.18  1636.62  1662.04
                             1678.20  1700.99  1740.09  1812.12  1843.78
                             1883.19  1922.41  1929.34  1936.31  1987.08
                             1999.32  2045.08  2119.83  2161.51  2185.01
                             2375.21  2386.73  2421.48  2508.14  4120.87
                             4303.00  4346.24  4354.48  4377.33  4485.41
                             4530.28  4834.56  4981.87  5048.76  5077.68
                             5100.91  5102.21  5242.80

 Zero-point correction=                           0.206646 (Hartree/Particle)
 Thermal correction to Energy=                    0.217872
 Thermal correction to Enthalpy=                  0.218816
 Thermal correction to Gibbs Free Energy=         0.169739
 Sum of electronic and zero-point Energies=           -417.728897
 Sum of electronic and thermal Energies=              -417.717672
 Sum of electronic and thermal Enthalpies=            -417.716728
 Sum of electronic and thermal Free Energies=         -417.765805

                     E (Thermal)             CV                S
                      KCal/Mol        Cal/Mol-Kelvin    Cal/Mol-Kelvin
 Total                  136.716             40.797            103.291
 Electronic               0.000              0.000              0.000
 Translational            0.889              2.981             40.503
 Rotational               0.889              2.981             29.703
 Vibrational            134.939             34.835             33.085
 Vibration     1          0.595              1.977              4.802
 Vibration     2          0.597              1.974              4.478
 Vibration     3          0.608              1.935              3.141
 Vibration     4          0.609              1.932              3.096
 Vibration     5          0.622              1.891              2.544
 Vibration     6          0.636              1.844              2.162
 Vibration     7          0.676              1.722              1.572
 Vibration     8          0.683              1.701              1.503
 Vibration     9          0.703              1.644              1.333
 Vibration    10          0.707              1.631              1.300
 Vibration    11          0.731              1.565              1.144
 Vibration    12          0.745              1.525              1.062
 Vibration    13          0.761              1.482              0.983
 Vibration    14          0.825              1.322              0.745
 Vibration    15          0.901              1.148              0.552
 Vibration    16          0.933              1.082              0.492

 Optimization completed.
    -- Stationary point found.
 Normal termination of Gaussian 16 at Mon May 31 15:38:23 2021.
