 Gaussian 16, Revision A.03,
 Gaussian 16:  ES64L-G16RevA.03 25-Dec-2016

 -----------------------------
 # opt freq b3lyp/6-31g(2df,p)
 -----------------------------

 -------------------
 Title Card Required
 -------------------
 Symbolic Z-matrix:
 Charge =  0 Multiplicity = 1

 SCF Done:  E(RB3LYP) =  -343.782200786     A.U. after   17 cycles
 SCF Done:  E(RB3LYP) =  -343.796616464     A.U. after   12 cycles
 SCF Done:  E(RB3LYP) =  -343.797564865     A.U. after   10 cycles
 SCF Done:  E(RB3LYP) =  -343.797603902     A.U. after    8 cycles
 SCF Done:  E(RB3LYP) =  -343.797607411     A.U. after    7 cycles
 Optimization completed.
    -- Stationary point found.
 Normal termination of Gaussian 16 at Mon May 31 13:30:57 2021.

 ----------------------------------------------------------------------
 #N Geom=AllCheck Guess=TCheck SCRF=Check GenChk RB3LYP/6-31G(2df,p) Fr
 eq
 ----------------------------------------------------------------------

 Structure from the checkpoint file:  "NCdCpNpNF.chk"
 -------------------
 Title Card Required
 -------------------
 Charge =  0 Multiplicity = 1

                         Standard orientation:
 ---------------------------------------------------------------------
 Center     Atomic      Atomic             Coordinates (Angstroms)
 Number     Number       Type             X           Y           Z
 ---------------------------------------------------------------------
      1          7           0        2.489699   -0.037354   -0.000114
      2          6           0        1.223608   -0.657856   -0.000044
      3          6           0        0.039182   -0.024576    0.000096
      4          7           0       -0.160001    1.346915    0.000104
      5          7           0       -1.162200   -0.750942    0.000327
      6          9           0       -2.348746   -0.043266   -0.000298
      7          1           0        3.317929   -0.595069   -0.000158
      8          1           0        2.609305    0.954730   -0.000046
      9          1           0        1.248950   -1.739466   -0.000072
     10          1           0        0.613757    1.977997    0.000002
     11          1           0       -1.089217    1.715189    0.000286
     12          1           0       -1.311236   -1.739730    0.000135
 ---------------------------------------------------------------------

 SCF Done:  E(RB3LYP) =  -343.797607411     A.U. after    1 cycles

 The electronic state is 1-A.
 Alpha  occ. eigenvalues --  -24.70713 -14.38687 -14.31779 -14.30058 -10.22774
 Alpha  occ. eigenvalues --  -10.16525  -1.21772  -0.91803  -0.85811  -0.83304
 Alpha  occ. eigenvalues --   -0.68572  -0.60186  -0.54315  -0.53549  -0.48655
 Alpha  occ. eigenvalues --   -0.47698  -0.45312  -0.43899  -0.38785  -0.38279
 Alpha  occ. eigenvalues --   -0.35349  -0.27224  -0.23389  -0.12014
 Alpha virt. eigenvalues --    0.04641   0.07635   0.10896   0.11376   0.12082
 Alpha virt. eigenvalues --    0.14256   0.19142   0.20885   0.27382   0.29102
 Alpha virt. eigenvalues --    0.37361   0.39782   0.43587   0.49139   0.50034

 Mulliken charges:
               1
     1  N   -0.568543
     2  C   -0.103470
     3  C    0.373084
     4  N   -0.612614
     5  N   -0.238114
     6  F   -0.165958
     7  H    0.242552
     8  H    0.229226
     9  H    0.066897
    10  H    0.246905
    11  H    0.257354
    12  H    0.272680
 Sum of Mulliken charges =  -0.00000

 Dipole moment (field-independent basis, Debye):
    X=              0.8884    Y=              0.2038    Z=             -0.0002  Tot=              0.9115
 Quadrupole moment (field-independent basis, Debye-Ang):
   XX=            -30.8207   YY=            -25.4944   ZZ=            -38.9682
   XY=              1.9009   XZ=              0.0002   YZ=              0.0009

  Exact polarizability:  66.383  -5.031  47.370  -0.003   0.000  23.503
 Approx polarizability:  96.280 -12.487  68.046  -0.006   0.001  35.205

 ******    6 imaginary frequencies (negative Signs) ******

                      1                      2                      3
                      A                      A                      A
 Frequencies --   -815.3221              -753.7354              -647.5772
 Red. masses --      1.4719                 1.2428                 1.2325
 Frc consts  --      0.5765                 0.4160                 0.3045
 IR Inten    --    120.6278               111.8596               298.9298

                      4                      5                      6
                      A                      A                      A
 Frequencies --   -373.6270              -270.0637              -122.9116
 Red. masses --      1.0748                 2.0180                 1.2538
 Frc consts  --      0.0884                 0.0867                 0.0112
 IR Inten    --      5.3276                 9.7905                15.5964

                      7                      8                      9
                      A                      A                      A
 Frequencies --    214.8089               223.9217               332.1164
 Red. masses --      3.9643                 4.0549                 4.2915
 Frc consts  --      0.1078                 0.1198                 0.2789
 IR Inten    --      3.7571                 6.1765                 4.2272

                     10                     11                     12
                      A                      A                      A
 Frequencies --    473.0917               554.0173               614.0897
 Red. masses --      6.2073                 4.4770                 2.5503
 Frc consts  --      0.8185                 0.8096                 0.5666
 IR Inten    --      1.1149                 3.0432                 3.3630

                     13                     14                     15
                      A                      A                      A
 Frequencies --    650.2968               885.3562               994.2546
 Red. masses --      1.2623                 3.2912                 1.9963
 Frc consts  --      0.3145                 1.5200                 1.1627
 IR Inten    --     40.2285                25.2525                84.5095

                     16                     17                     18
                      A                      A                      A
 Frequencies --   1090.6942              1129.1366              1201.3375
 Red. masses --      1.8499                 2.3135                 3.1539
 Frc consts  --      1.2966                 1.7378                 2.6818
 IR Inten    --     15.7104                65.2414                73.0954

                     19                     20                     21
                      A                      A                      A
 Frequencies --   1315.5266              1434.5765              1452.9630
 Red. masses --      1.3549                 1.4022                 3.0353
 Frc consts  --      1.3815                 1.7002                 3.7754
 IR Inten    --     11.2890                21.9562                60.7915

                     22                     23                     24
                      A                      A                      A
 Frequencies --   1622.7766              1647.9746              1794.6346
 Red. masses --      1.2256                 1.1143                 7.5861
 Frc consts  --      1.9015                 1.7831                14.3952
 IR Inten    --     84.2587                63.5359                53.1202

                     25                     26                     27
                      A                      A                      A
 Frequencies --   3206.8678              3688.8994              3696.3698
 Red. masses --      1.0887                 1.0449                 1.0451
 Frc consts  --      6.5967                 8.3776                 8.4135
 IR Inten    --     14.9334                67.9749                24.8054

                     28                     29                     30
                      A                      A                      A
 Frequencies --   3750.2879              3809.2737              3822.0751
 Red. masses --      1.0809                 1.1031                 1.1044
 Frc consts  --      8.9569                 9.4308                 9.5054
 IR Inten    --     63.0275                29.4540                43.5387

 - Thermochemistry -
 -------------------
 Temperature   298.150 Kelvin.  Pressure   1.00000 Atm.
 Atom     1 has atomic number  7 and mass  14.00307

 Molecular mass:    91.05458 amu.
 Principal axes and moments of inertia in atomic units:
                           1         2         3
     Eigenvalues --   188.67875 896.520541085.19926
           X            1.00000  -0.00040  -0.00001
           Y            0.00040   1.00000   0.00001
           Z            0.00001  -0.00001   1.00000
 This molecule is an asymmetric top.
 Rotational symmetry number  1.
 Rotational temperatures (Kelvin)      0.45905     0.09661     0.07981
 Rotational constants (GHZ):           9.56515     2.01305     1.66305
    6 imaginary frequencies ignored.
 Zero-point vibrational energy     236892.6 (Joules/Mol)
                                   56.61869 (Kcal/Mol)
 Warning -- explicit consideration of   6 degrees of freedom as
           vibrations may cause significant error
 Vibrational temperatures:    309.06   322.17   477.84   680.67   797.11
          (Kelvin)            883.54   935.63  1273.83  1430.51  1569.27
                             1624.58  1728.46  1892.75  2064.04  2090.49
                             2334.81  2371.07  2582.08  4613.97  5307.50
                             5318.25  5395.83  5480.70  5499.11

 Zero-point correction=                           0.090228 (Hartree/Particle)
 Thermal correction to Energy=                    0.095412
 Thermal correction to Enthalpy=                  0.096356
 Thermal correction to Gibbs Free Energy=         0.061260
 Sum of electronic and zero-point Energies=           -343.707380
 Sum of electronic and thermal Energies=              -343.702196
 Sum of electronic and thermal Enthalpies=            -343.701251
 Sum of electronic and thermal Free Energies=         -343.736348

                     E (Thermal)             CV                S
                      KCal/Mol        Cal/Mol-Kelvin    Cal/Mol-Kelvin
 Total                   59.872             17.659             73.866
 Electronic               0.000              0.000              0.000
 Translational            0.889              2.981             39.439
 Rotational               0.889              2.981             26.709
 Vibrational             58.094             11.698              7.718
 Vibration     1          0.645              1.818              2.002
 Vibration     2          0.649              1.805              1.927
 Vibration     3          0.714              1.611              1.250
 Vibration     4          0.830              1.310              0.729
 Vibration     5          0.909              1.131              0.536
 Vibration     6          0.973              1.002              0.426

 Optimization completed.
    -- Stationary point found.
 Normal termination of Gaussian 16 at Mon May 31 13:40:02 2021.
