 Gaussian 16, Revision A.03,
 Gaussian 16:  ES64L-G16RevA.03 25-Dec-2016

 -----------------------------
 # opt freq b3lyp/6-31g(2df,p)
 -----------------------------

 -------------------
 Title Card Required
 -------------------
 Symbolic Z-matrix:
 Charge =  0 Multiplicity = 1

 SCF Done:  E(RB3LYP) =  -432.728600369     A.U. after   14 cycles
 SCF Done:  E(RB3LYP) =  -432.738419760     A.U. after   12 cycles
 SCF Done:  E(RB3LYP) =  -432.745723170     A.U. after   12 cycles
 SCF Done:  E(RB3LYP) =  -432.754707320     A.U. after   14 cycles
 SCF Done:  E(RB3LYP) =  -432.758023113     A.U. after   13 cycles
 SCF Done:  E(RB3LYP) =  -432.761893372     A.U. after   14 cycles
 SCF Done:  E(RB3LYP) =  -432.763015042     A.U. after   12 cycles
 SCF Done:  E(RB3LYP) =  -432.764055070     A.U. after   13 cycles
 SCF Done:  E(RB3LYP) =  -432.764555494     A.U. after   13 cycles
 SCF Done:  E(RB3LYP) =  -432.764907378     A.U. after   12 cycles
 SCF Done:  E(RB3LYP) =  -432.764664614     A.U. after   13 cycles
 SCF Done:  E(RB3LYP) =  -432.765528052     A.U. after    9 cycles
 SCF Done:  E(RB3LYP) =  -432.765366913     A.U. after   12 cycles
 SCF Done:  E(RB3LYP) =  -432.765318078     A.U. after   12 cycles
 SCF Done:  E(RB3LYP) =  -432.765631279     A.U. after   10 cycles
 SCF Done:  E(RB3LYP) =  -432.765639594     A.U. after    9 cycles
 SCF Done:  E(RB3LYP) =  -432.765641591     A.U. after    9 cycles
 SCF Done:  E(RB3LYP) =  -432.765642415     A.U. after    8 cycles
 SCF Done:  E(RB3LYP) =  -432.765642790     A.U. after    8 cycles
 Optimization completed.
    -- Stationary point found.
 Normal termination of Gaussian 16 at Mon May 31 14:21:14 2021.

 ----------------------------------------------------------------------
 #N Geom=AllCheck Guess=TCheck SCRF=Check GenChk RB3LYP/6-31G(2df,p) Fr
 eq
 ----------------------------------------------------------------------

 Structure from the checkpoint file:  "NCdNCCpNpdCNN.chk"
 -------------------
 Title Card Required
 -------------------
 Charge =  0 Multiplicity = 1

                         Standard orientation:
 ---------------------------------------------------------------------
 Center     Atomic      Atomic             Coordinates (Angstroms)
 Number     Number       Type             X           Y           Z
 ---------------------------------------------------------------------
      1          7           0       -3.991562    0.289100   -0.594517
      2          6           0       -2.923540   -0.165209    0.139619
      3          7           0       -1.786180   -0.406559   -0.373050
      4          6           0       -0.720993   -0.825261    0.528788
      5          6           0        0.517009    0.023790    0.359992
      6          7           0        0.279355    1.409121    0.449296
      7          6           0        1.732370   -0.539532    0.265175
      8          7           0        2.968976    0.137564    0.293555
      9          7           0        3.828687   -0.048508   -0.841569
     10          1           0       -4.912919    0.118748   -0.225958
     11          1           0       -3.903935    0.189379   -1.595463
     12          1           0       -3.139893   -0.257404    1.214626
     13          1           0       -0.451908   -1.865364    0.310306
     14          1           0       -1.052338   -0.788592    1.583829
     15          1           0       -0.613221    1.637409    0.024108
     16          1           0        1.002495    1.963949    0.005628
     17          1           0        1.816890   -1.622576    0.249402
     18          1           0        2.882186    1.130801    0.462225
     19          1           0        3.261677   -0.255191   -1.665111
     20          1           0        4.386954   -0.878905   -0.661041
 ---------------------------------------------------------------------

 SCF Done:  E(RB3LYP) =  -432.765642790     A.U. after    1 cycles

 The electronic state is 1-A.
 Alpha  occ. eigenvalues --  -14.34843 -14.33418 -14.32697 -14.31547 -14.29987
 Alpha  occ. eigenvalues --  -10.25119 -10.20234 -10.19370 -10.17414  -0.95064
 Alpha  occ. eigenvalues --   -0.94761  -0.89651  -0.86333  -0.77506  -0.72342
 Alpha  occ. eigenvalues --   -0.65183  -0.59590  -0.55558  -0.53115  -0.51134
 Alpha  occ. eigenvalues --   -0.48293  -0.47940  -0.46709  -0.45011  -0.43862
 Alpha  occ. eigenvalues --   -0.40411  -0.38616  -0.37086  -0.35444  -0.31851
 Alpha  occ. eigenvalues --   -0.26056  -0.25340  -0.24866  -0.23562  -0.16787
 Alpha virt. eigenvalues --    0.02692   0.05200   0.07811   0.08419   0.10718
 Alpha virt. eigenvalues --    0.11440   0.12811   0.15421   0.16151   0.16808
 Alpha virt. eigenvalues --    0.17510   0.18397   0.20411   0.22028   0.24107

 Mulliken charges:
               1
     1  N   -0.501400
     2  C    0.096647
     3  N   -0.225589
     4  C   -0.222785
     5  C    0.290545
     6  N   -0.581099
     7  C   -0.116617
     8  N   -0.306605
     9  N   -0.471195
    10  H    0.255537
    11  H    0.257570
    12  H    0.088294
    13  H    0.105487
    14  H    0.088672
    15  H    0.245271
    16  H    0.227739
    17  H    0.078005
    18  H    0.231348
    19  H    0.220218
    20  H    0.239956
 Sum of Mulliken charges =  -0.00000

 Dipole moment (field-independent basis, Debye):
    X=             -3.8094    Y=             -0.5536    Z=             -0.9344  Tot=              3.9612
 Quadrupole moment (field-independent basis, Debye-Ang):
   XX=            -42.6177   YY=            -51.8697   ZZ=            -54.8898
   XY=             -1.7596   XZ=             -1.8317   YZ=             -0.9168

  Exact polarizability: 134.452 -12.292  67.424  -5.618  -0.900  62.128
 Approx polarizability: 174.883 -24.673 104.383 -10.947   1.204  95.042

                      1                      2                      3
                      A                      A                      A
 Frequencies --     45.5595                62.8033                83.9024
 Red. masses --      4.3356                 4.0642                 3.3573
 Frc consts  --      0.0053                 0.0094                 0.0139
 IR Inten    --      0.4080                 3.7455                 7.1291

                      4                      5                      6
                      A                      A                      A
 Frequencies --    138.5571               175.0242               246.2036
 Red. masses --      2.4513                 2.6695                 2.0862
 Frc consts  --      0.0277                 0.0482                 0.0745
 IR Inten    --      5.4874                10.3313                11.4616

                      7                      8                      9
                      A                      A                      A
 Frequencies --    286.2297               329.5844               337.1799
 Red. masses --      2.9209                 1.5462                 2.3509
 Frc consts  --      0.1410                 0.0990                 0.1575
 IR Inten    --      0.7640                46.6359                 6.7515

                     10                     11                     12
                      A                      A                      A
 Frequencies --    345.9493               368.5470               416.7396
 Red. masses --      2.2720                 1.6589                 1.1826
 Frc consts  --      0.1602                 0.1328                 0.1210
 IR Inten    --      4.6026                29.2296               145.4796

                     13                     14                     15
                      A                      A                      A
 Frequencies --    444.2754               554.6192               583.7123
 Red. masses --      2.5040                 2.4279                 1.6246
 Frc consts  --      0.2912                 0.4400                 0.3261
 IR Inten    --     43.0858                62.5965                50.0996

                     16                     17                     18
                      A                      A                      A
 Frequencies --    617.2108               670.0021               709.0804
 Red. masses --      2.2484                 2.4570                 1.7352
 Frc consts  --      0.5046                 0.6498                 0.5140
 IR Inten    --     35.7024                25.8543               164.7025

                     19                     20                     21
                      A                      A                      A
 Frequencies --    786.1086               844.3928               895.5132
 Red. masses --      1.8906                 1.3107                 2.9611
 Frc consts  --      0.6884                 0.5506                 1.3991
 IR Inten    --    225.9143                25.3752                13.0411

                     22                     23                     24
                      A                      A                      A
 Frequencies --    950.7022               967.4791              1004.7165
 Red. masses --      1.6716                 2.3140                 1.5487
 Frc consts  --      0.8902                 1.2762                 0.9211
 IR Inten    --     67.1755                16.0470                13.2210

                     25                     26                     27
                      A                      A                      A
 Frequencies --   1030.9547              1111.5141              1154.9910
 Red. masses --      1.8231                 2.2045                 2.1735
 Frc consts  --      1.1417                 1.6047                 1.7083
 IR Inten    --      3.2532                15.8823                 6.9745

                     28                     29                     30
                      A                      A                      A
 Frequencies --   1162.1913              1212.7925              1251.7957
 Red. masses --      1.9412                 2.4868                 1.1257
 Frc consts  --      1.5448                 2.1551                 1.0393
 IR Inten    --     56.4649                64.6924                11.6756

                     31                     32                     33
                      A                      A                      A
 Frequencies --   1288.0216              1294.4661              1319.9327
 Red. masses --      1.4606                 2.1874                 1.2825
 Frc consts  --      1.4277                 2.1595                 1.3164
 IR Inten    --     24.8211                85.0887                25.3353

                     34                     35                     36
                      A                      A                      A
 Frequencies --   1366.2703              1392.2359              1408.6476
 Red. masses --      1.4670                 1.5219                 1.5092
 Frc consts  --      1.6135                 1.7380                 1.7644
 IR Inten    --     36.0626                 8.5729                42.5044

                     37                     38                     39
                      A                      A                      A
 Frequencies --   1471.7920              1487.1306              1627.0326
 Red. masses --      1.1045                 1.1741                 1.1946
 Frc consts  --      1.4096                 1.5299                 1.8632
 IR Inten    --     12.4777                19.6855                31.6000

                     40                     41                     42
                      A                      A                      A
 Frequencies --   1650.2425              1683.9695              1739.7820
 Red. masses --      1.1272                 1.0632                 6.2180
 Frc consts  --      1.8087                 1.7763                11.0890
 IR Inten    --     45.6497                23.7083                70.0176

                     43                     44                     45
                      A                      A                      A
 Frequencies --   1760.4556              2917.3251              3008.6631
 Red. masses --      6.1795                 1.0708                 1.0859
 Frc consts  --     11.2838                 5.3696                 5.7912
 IR Inten    --    404.1915                62.6158                56.6519

                     46                     47                     48
                      A                      A                      A
 Frequencies --   3046.2928              3159.1590              3417.9968
 Red. masses --      1.0882                 1.0889                 1.0517
 Frc consts  --      5.9495                 6.4027                 7.2393
 IR Inten    --     27.2911                15.6572                17.9473

                     49                     50                     51
                      A                      A                      A
 Frequencies --   3502.8636              3519.6607              3563.4600
 Red. masses --      1.0477                 1.0894                 1.0751
 Frc consts  --      7.5742                 7.9516                 8.0434
 IR Inten    --      8.4865                 1.9015                 2.7997

                     52                     53                     54
                      A                      A                      A
 Frequencies --   3577.5078              3591.2806              3699.9704
 Red. masses --      1.0467                 1.0943                 1.0998
 Frc consts  --      7.8925                 8.3151                 8.8710
 IR Inten    --     34.1196                12.1447                27.6464

 - Thermochemistry -
 -------------------
 Temperature   298.150 Kelvin.  Pressure   1.00000 Atm.
 Atom     1 has atomic number  7 and mass  14.00307

 Molecular mass:   129.10145 amu.
 Principal axes and moments of inertia in atomic units:
                           1         2         3
     Eigenvalues --   343.732363130.972353210.60700
           X            0.99998  -0.00321  -0.00581
           Y            0.00287   0.99836  -0.05714
           Z            0.00598   0.05712   0.99835
 This molecule is an asymmetric top.
 Rotational symmetry number  1.
 Rotational temperatures (Kelvin)      0.25198     0.02766     0.02698
 Rotational constants (GHZ):           5.25043     0.57642     0.56212
 Zero-point vibrational energy     450289.3 (Joules/Mol)
                                  107.62172 (Kcal/Mol)
 Warning -- explicit consideration of  16 degrees of freedom as
           vibrations may cause significant error
 Vibrational temperatures:     65.55    90.36   120.72   199.35   251.82
          (Kelvin)            354.23   411.82   474.20   485.13   497.74
                              530.26   599.60   639.21   797.97   839.83
                              888.03   963.98  1020.21  1131.04  1214.89
                             1288.44  1367.85  1391.99  1445.56  1483.31
                             1599.22  1661.77  1672.13  1744.94  1801.05
                             1853.18  1862.45  1899.09  1965.76  2003.12
                             2026.73  2117.58  2139.65  2340.94  2374.33
                             2422.86  2503.16  2532.90  4197.38  4328.80
                             4382.94  4545.33  4917.74  5039.84  5064.01
                             5127.02  5147.24  5167.05  5323.43

 Zero-point correction=                           0.171506 (Hartree/Particle)
 Thermal correction to Energy=                    0.182252
 Thermal correction to Enthalpy=                  0.183196
 Thermal correction to Gibbs Free Energy=         0.134910
 Sum of electronic and zero-point Energies=           -432.594137
 Sum of electronic and thermal Energies=              -432.583391
 Sum of electronic and thermal Enthalpies=            -432.582447
 Sum of electronic and thermal Free Energies=         -432.630733

                     E (Thermal)             CV                S
                      KCal/Mol        Cal/Mol-Kelvin    Cal/Mol-Kelvin
 Total                  114.365             38.726            101.628
 Electronic               0.000              0.000              0.000
 Translational            0.889              2.981             40.479
 Rotational               0.889              2.981             29.626
 Vibrational            112.587             32.764             31.523
 Vibration     1          0.595              1.979              5.001
 Vibration     2          0.597              1.972              4.367
 Vibration     3          0.601              1.960              3.797
 Vibration     4          0.614              1.915              2.824
 Vibration     5          0.627              1.873              2.381
 Vibration     6          0.661              1.769              1.758
 Vibration     7          0.684              1.699              1.496
 Vibration     8          0.712              1.616              1.262
 Vibration     9          0.718              1.601              1.225
 Vibration    10          0.724              1.584              1.185
 Vibration    11          0.741              1.537              1.086
 Vibration    12          0.780              1.434              0.903
 Vibration    13          0.804              1.374              0.813
 Vibration    14          0.910              1.130              0.535
 Vibration    15          0.941              1.067              0.479
 Vibration    16          0.977              0.996              0.421

                           ! Non-Optimized Parameters !
 Normal termination of Gaussian 16 at Mon May 31 14:47:23 2021.
