 Gaussian 16, Revision A.03,
 Gaussian 16:  ES64L-G16RevA.03 25-Dec-2016

 -----------------------------
 # opt freq b3lyp/6-31g(2df,p)
 -----------------------------

 -------------------
 Title Card Required
 -------------------
 Symbolic Z-matrix:
 Charge =  0 Multiplicity = 1

 SCF Done:  E(RB3LYP) =  -579.248920623     A.U. after   15 cycles
 SCF Done:  E(RB3LYP) =  -579.268163896     A.U. after   15 cycles
 SCF Done:  E(RB3LYP) =  -579.275738940     A.U. after   14 cycles
 SCF Done:  E(RB3LYP) =  -579.279183937     A.U. after   13 cycles
 SCF Done:  E(RB3LYP) =  -579.281984849     A.U. after   13 cycles
 SCF Done:  E(RB3LYP) =  -579.285329434     A.U. after   14 cycles
 SCF Done:  E(RB3LYP) =  -579.286386594     A.U. after   12 cycles
 SCF Done:  E(RB3LYP) =  -579.287492449     A.U. after   13 cycles
 SCF Done:  E(RB3LYP) =  -579.287880591     A.U. after   13 cycles
 SCF Done:  E(RB3LYP) =  -579.287982275     A.U. after   13 cycles
 SCF Done:  E(RB3LYP) =  -579.293040935     A.U. after   12 cycles
 SCF Done:  E(RB3LYP) =  -579.293182380     A.U. after   13 cycles
 SCF Done:  E(RB3LYP) =  -579.293270694     A.U. after   12 cycles
 SCF Done:  E(RB3LYP) =  -579.293296423     A.U. after   13 cycles
 SCF Done:  E(RB3LYP) =  -579.293310878     A.U. after   11 cycles
 SCF Done:  E(RB3LYP) =  -579.293334909     A.U. after   12 cycles
 SCF Done:  E(RB3LYP) =  -579.293337876     A.U. after    8 cycles
 SCF Done:  E(RB3LYP) =  -579.293342850     A.U. after   11 cycles
 SCF Done:  E(RB3LYP) =  -579.293342961     A.U. after    8 cycles
 Optimization completed.
    -- Stationary point found.
 Normal termination of Gaussian 16 at Tue Jun  1 04:22:49 2021.

 ----------------------------------------------------------------------
 #N Geom=AllCheck Guess=TCheck SCRF=Check GenChk RB3LYP/6-31G(2df,p) Fr
 eq
 ----------------------------------------------------------------------

 Structure from the checkpoint file:  "NCdNNNpCNpCNdNO.chk"
 -------------------
 Title Card Required
 -------------------
 Charge =  0 Multiplicity = 1

                         Standard orientation:
 ---------------------------------------------------------------------
 Center     Atomic      Atomic             Coordinates (Angstroms)
 Number     Number       Type             X           Y           Z
 ---------------------------------------------------------------------
      1          7           0       -3.397325   -1.636549   -0.837809
      2          6           0       -2.356173   -0.817737   -0.428736
      3          7           0       -2.336141   -0.317130    0.744151
      4          7           0       -1.376584    0.664788    1.029020
      5          7           0       -0.152769    0.570929    0.315860
      6          6           0        0.398317    1.891713    0.036157
      7          7           0       -0.332481    2.509275   -1.055738
      8          6           0        0.773723   -0.378251    0.914338
      9          7           0        1.732494   -0.845222   -0.096303
     10          7           0        2.889860   -0.689958    0.283844
     11          8           0        3.764820   -1.159943   -0.690568
     12          1           0       -3.131681   -2.376476   -1.471424
     13          1           0       -3.976313   -1.964808   -0.075938
     14          1           0       -1.608032   -0.593524   -1.187918
     15          1           0       -1.213724    0.603544    2.033741
     16          1           0        1.470556    1.740000   -0.161875
     17          1           0        0.317183    2.552720    0.914125
     18          1           0       -0.068146    2.079131   -1.936332
     19          1           0       -0.105000    3.496000   -1.116869
     20          1           0        0.181814   -1.252239    1.204255
     21          1           0        1.303389    0.012649    1.802101
     22          1           0        4.626818   -0.984729   -0.291040
 ---------------------------------------------------------------------

 SCF Done:  E(RB3LYP) =  -579.293342961     A.U. after    1 cycles

 The electronic state is 1-A.
 Alpha  occ. eigenvalues --  -19.19471 -14.44167 -14.37449 -14.36469 -14.34907
 Alpha  occ. eigenvalues --  -14.32911 -14.31861 -14.30396 -10.24413 -10.23089
 Alpha  occ. eigenvalues --  -10.22467  -1.12890  -1.01359  -0.98581  -0.92558
 Alpha  occ. eigenvalues --   -0.88574  -0.85121  -0.76375  -0.71875  -0.63883
 Alpha  occ. eigenvalues --   -0.59939  -0.57181  -0.54000  -0.52627  -0.52235
 Alpha  occ. eigenvalues --   -0.50003  -0.48595  -0.46077  -0.45535  -0.45011
 Alpha  occ. eigenvalues --   -0.43905  -0.42458  -0.39921  -0.38343  -0.37124
 Alpha  occ. eigenvalues --   -0.36223  -0.30360  -0.29366  -0.26308  -0.25944
 Alpha  occ. eigenvalues --   -0.23872  -0.23296  -0.18825
 Alpha virt. eigenvalues --   -0.03528   0.04584   0.06996   0.08835   0.09239
 Alpha virt. eigenvalues --    0.09986   0.12552   0.13548   0.14367   0.14864
 Alpha virt. eigenvalues --    0.15436   0.16118   0.16962   0.18286   0.20356

 Mulliken charges:
               1
     1  N   -0.508371
     2  C    0.104125
     3  N   -0.226183
     4  N   -0.210456
     5  N   -0.057960
     6  C   -0.088275
     7  N   -0.485495
     8  C   -0.103672
     9  N   -0.085182
    10  N    0.019351
    11  O   -0.361751
    12  H    0.247525
    13  H    0.248823
    14  H    0.114869
    15  H    0.225609
    16  H    0.089947
    17  H    0.089783
    18  H    0.227301
    19  H    0.225224
    20  H    0.135166
    21  H    0.094199
    22  H    0.305424
 Sum of Mulliken charges =  -0.00000

 Dipole moment (field-independent basis, Debye):
    X=              2.8930    Y=             -0.6424    Z=              0.4322  Tot=              2.9948
 Quadrupole moment (field-independent basis, Debye-Ang):
   XX=            -60.0354   YY=            -57.4553   ZZ=            -61.5973
   XY=              9.9535   XZ=              2.9641   YZ=             -0.7904

  Exact polarizability: 122.222   8.154  84.884   1.003   8.647  81.329
 Approx polarizability: 163.454   9.844 117.667   1.047  20.773 133.281

                      1                      2                      3
                      A                      A                      A
 Frequencies --     30.3133                42.5940                64.8032
 Red. masses --      5.2879                 4.5272                 4.2479
 Frc consts  --      0.0029                 0.0048                 0.0105
 IR Inten    --      1.1731                 2.0616                 1.2698

                      4                      5                      6
                      A                      A                      A
 Frequencies --     91.4158               133.3294               150.6335
 Red. masses --      3.3466                 2.7272                 2.3957
 Frc consts  --      0.0165                 0.0286                 0.0320
 IR Inten    --      6.4843                13.8977                12.9030

                      7                      8                      9
                      A                      A                      A
 Frequencies --    206.4561               213.7999               263.7366
 Red. masses --      4.9033                 1.1250                 4.3720
 Frc consts  --      0.1231                 0.0303                 0.1792
 IR Inten    --      5.2001                31.8264                 3.1912

                     10                     11                     12
                      A                      A                      A
 Frequencies --    267.8096               329.6755               367.2479
 Red. masses --      3.8648                 4.0985                 3.5351
 Frc consts  --      0.1633                 0.2625                 0.2809
 IR Inten    --      9.9011                 5.2229                 8.9238

                     13                     14                     15
                      A                      A                      A
 Frequencies --    391.7504               404.8052               422.3636
 Red. masses --      2.6165                 2.8179                 1.6452
 Frc consts  --      0.2366                 0.2721                 0.1729
 IR Inten    --     48.2558                17.2816                34.2530

                     16                     17                     18
                      A                      A                      A
 Frequencies --    476.9702               515.4938               564.2712
 Red. masses --      3.1784                 1.1714                 3.3471
 Frc consts  --      0.4260                 0.1834                 0.6279
 IR Inten    --      5.3989                83.7975                32.4213

                     19                     20                     21
                      A                      A                      A
 Frequencies --    663.0985               676.2129               710.6033
 Red. masses --      1.4827                 4.4371                 4.7530
 Frc consts  --      0.3841                 1.1954                 1.4141
 IR Inten    --    277.5551                55.8825                25.5451

                     22                     23                     24
                      A                      A                      A
 Frequencies --    777.6763               822.1716               908.1627
 Red. masses --      2.8397                 1.3502                 2.2832
 Frc consts  --      1.0119                 0.5377                 1.1095
 IR Inten    --     55.1918               132.1627                73.5605

                     25                     26                     27
                      A                      A                      A
 Frequencies --    974.5176               988.6732              1001.2581
 Red. masses --      1.5373                 2.7308                 2.3744
 Frc consts  --      0.8602                 1.5727                 1.4025
 IR Inten    --     11.6679                77.5561                31.2979

                     28                     29                     30
                      A                      A                      A
 Frequencies --   1019.3386              1033.5587              1089.2679
 Red. masses --      1.8011                 4.4312                 3.3311
 Frc consts  --      1.1026                 2.7889                 2.3286
 IR Inten    --     74.4378                81.7900                52.2370

                     31                     32                     33
                      A                      A                      A
 Frequencies --   1092.8760              1155.6572              1163.3180
 Red. masses --      2.3644                 2.0884                 2.8040
 Frc consts  --      1.6638                 1.6433                 2.2357
 IR Inten    --     23.4230                45.5986                 2.0457

                     34                     35                     36
                      A                      A                      A
 Frequencies --   1194.4611              1253.9270              1288.1908
 Red. masses --      2.0071                 1.3507                 1.9574
 Frc consts  --      1.6872                 1.2513                 1.9137
 IR Inten    --     18.2996                 9.0419                58.5576

                     37                     38                     39
                      A                      A                      A
 Frequencies --   1306.6927              1358.9581              1369.6451
 Red. masses --      1.5936                 1.2867                 1.3204
 Frc consts  --      1.6031                 1.4000                 1.4594
 IR Inten    --     19.6010                 3.0566                 5.8131

                     40                     41                     42
                      A                      A                      A
 Frequencies --   1379.9255              1402.5040              1454.6766
 Red. masses --      1.3356                 1.3449                 1.2920
 Frc consts  --      1.4984                 1.5587                 1.6109
 IR Inten    --    187.5314                 5.9392                34.7358

                     43                     44                     45
                      A                      A                      A
 Frequencies --   1482.0185              1500.0201              1522.7861
 Red. masses --      1.0903                 1.0855                 1.1842
 Frc consts  --      1.4109                 1.4390                 1.6179
 IR Inten    --      4.0504                 3.6860                17.4622

                     46                     47                     48
                      A                      A                      A
 Frequencies --   1632.6996              1650.2335              1680.2318
 Red. masses --      1.1652                 1.1005                 6.5428
 Frc consts  --      1.8300                 1.7658                10.8831
 IR Inten    --     35.9134                27.1949                35.1844

                     49                     50                     51
                      A                      A                      A
 Frequencies --   1738.1510              2936.0077              2966.9443
 Red. masses --      5.7509                 1.0684                 1.0556
 Frc consts  --     10.2368                 5.4262                 5.4749
 IR Inten    --    133.0163                46.6578                79.5862

                     52                     53                     54
                      A                      A                      A
 Frequencies --   2999.5849              3076.9490              3140.8253
 Red. masses --      1.1049                 1.0916                 1.0882
 Frc consts  --      5.8574                 6.0890                 6.3246
 IR Inten    --     51.7781                 5.8325                10.3433

                     55                     56                     57
                      A                      A                      A
 Frequencies --   3427.7097              3501.8151              3548.2596
 Red. masses --      1.0753                 1.0490                 1.0465
 Frc consts  --      7.4439                 7.5787                 7.7631
 IR Inten    --      4.8450                 0.1180                14.0222

                     58                     59                     60
                      A                      A                      A
 Frequencies --   3588.7246              3657.8691              3787.9470
 Red. masses --      1.0931                 1.0979                 1.0667
 Frc consts  --      8.2945                 8.6554                 9.0177
 IR Inten    --      0.5356                14.4517                92.6562

 - Thermochemistry -
 -------------------
 Temperature   298.150 Kelvin.  Pressure   1.00000 Atm.
 Atom     1 has atomic number  7 and mass  14.00307

 Molecular mass:   161.10251 amu.
 Principal axes and moments of inertia in atomic units:
                           1         2         3
     Eigenvalues --  1272.938463116.601533753.90387
           X            0.99963   0.02604   0.00823
           Y           -0.02597   0.99963  -0.00770
           Z           -0.00843   0.00748   0.99994
 This molecule is an asymmetric top.
 Rotational symmetry number  1.
 Warning -- assumption of classical behavior for rotation
           may cause significant error
 Rotational temperatures (Kelvin)      0.06804     0.02779     0.02307
 Rotational constants (GHZ):           1.41778     0.57907     0.48076
 Zero-point vibrational energy     471697.2 (Joules/Mol)
                                  112.73834 (Kcal/Mol)
 Warning -- explicit consideration of  18 degrees of freedom as
           vibrations may cause significant error
 Vibrational temperatures:     43.61    61.28    93.24   131.53   191.83
          (Kelvin)            216.73   297.04   307.61   379.46   385.32
                              474.33   528.39   563.64   582.42   607.69
                              686.25   741.68   811.86   954.05   972.92
                             1022.40  1118.90  1182.92  1306.64  1402.11
                             1422.48  1440.59  1466.60  1487.06  1567.21
                             1572.40  1662.73  1673.76  1718.56  1804.12
                             1853.42  1880.04  1955.24  1970.61  1985.41
                             2017.89  2092.96  2132.29  2158.19  2190.95
                             2349.09  2374.32  2417.48  2500.81  4224.26
                             4268.77  4315.73  4427.04  4518.95  4931.71
                             5038.33  5105.15  5163.37  5262.86  5450.01

 Zero-point correction=                           0.179660 (Hartree/Particle)
 Thermal correction to Energy=                    0.192341
 Thermal correction to Enthalpy=                  0.193285
 Thermal correction to Gibbs Free Energy=         0.139346
 Sum of electronic and zero-point Energies=           -579.113683
 Sum of electronic and thermal Energies=              -579.101002
 Sum of electronic and thermal Enthalpies=            -579.100058
 Sum of electronic and thermal Free Energies=         -579.153997

                     E (Thermal)             CV                S
                      KCal/Mol        Cal/Mol-Kelvin    Cal/Mol-Kelvin
 Total                  120.696             44.847            113.525
 Electronic               0.000              0.000              0.000
 Translational            0.889              2.981             41.139
 Rotational               0.889              2.981             31.077
 Vibrational            118.918             38.885             41.308
 Vibration     1          0.594              1.984              5.809
 Vibration     2          0.595              1.980              5.135
 Vibration     3          0.597              1.971              4.305
 Vibration     4          0.602              1.955              3.630
 Vibration     5          0.613              1.920              2.897
 Vibration     6          0.618              1.902              2.664
 Vibration     7          0.641              1.831              2.075
 Vibration     8          0.644              1.820              2.011
 Vibration     9          0.670              1.739              1.637
 Vibration    10          0.673              1.732              1.610
 Vibration    11          0.712              1.616              1.262
 Vibration    12          0.740              1.540              1.091
 Vibration    13          0.759              1.488              0.993
 Vibration    14          0.770              1.460              0.945
 Vibration    15          0.785              1.422              0.884
 Vibration    16          0.834              1.301              0.718
 Vibration    17          0.871              1.216              0.620
 Vibration    18          0.920              1.109              0.515

 Optimization completed.
    -- Stationary point found.
 Normal termination of Gaussian 16 at Tue Jun  1 05:18:42 2021.
