 Gaussian 16, Revision A.03,
 Gaussian 16:  ES64L-G16RevA.03 25-Dec-2016

 -----------------------------
 # opt freq b3lyp/6-31g(2df,p)
 -----------------------------

 -------------------
 Title Card Required
 -------------------
 Symbolic Z-matrix:
 Charge =  0 Multiplicity = 1

 SCF Done:  E(RB3LYP) =  -400.716651773     A.U. after   14 cycles
 SCF Done:  E(RB3LYP) =  -400.719008310     A.U. after   11 cycles
 SCF Done:  E(RB3LYP) =  -400.719144198     A.U. after   10 cycles
 SCF Done:  E(RB3LYP) =  -400.719155396     A.U. after    9 cycles
 SCF Done:  E(RB3LYP) =  -400.719158673     A.U. after    8 cycles
 SCF Done:  E(RB3LYP) =  -400.719162389     A.U. after    9 cycles
 SCF Done:  E(RB3LYP) =  -400.719164134     A.U. after    9 cycles
 SCF Done:  E(RB3LYP) =  -400.719171896     A.U. after   10 cycles
 SCF Done:  E(RB3LYP) =  -400.700111737     A.U. after   13 cycles
 SCF Done:  E(RB3LYP) =  -400.665890426     A.U. after   12 cycles
 SCF Done:  E(RB3LYP) =  -400.722147563     A.U. after   11 cycles
 SCF Done:  E(RB3LYP) =  -400.722323519     A.U. after   10 cycles
 SCF Done:  E(RB3LYP) =  -400.722607339     A.U. after   11 cycles
 SCF Done:  E(RB3LYP) =  -400.722846726     A.U. after   11 cycles
 SCF Done:  E(RB3LYP) =  -400.723015929     A.U. after   10 cycles
 SCF Done:  E(RB3LYP) =  -400.723136914     A.U. after   10 cycles
 SCF Done:  E(RB3LYP) =  -400.723181766     A.U. after   10 cycles
 SCF Done:  E(RB3LYP) =  -400.723193886     A.U. after   10 cycles
 SCF Done:  E(RB3LYP) =  -400.723194010     A.U. after    6 cycles
 Optimization completed.
    -- Stationary point found.
 Normal termination of Gaussian 16 at Mon May 31 15:46:31 2021.

 ----------------------------------------------------------------------
 #N Geom=AllCheck Guess=TCheck SCRF=Check GenChk RB3LYP/6-31G(2df,p) Fr
 eq
 ----------------------------------------------------------------------

 Structure from the checkpoint file:  "NCdNCdCCCCN.chk"
 -------------------
 Title Card Required
 -------------------
 Charge =  0 Multiplicity = 1

                         Standard orientation:
 ---------------------------------------------------------------------
 Center     Atomic      Atomic             Coordinates (Angstroms)
 Number     Number       Type             X           Y           Z
 ---------------------------------------------------------------------
      1          7           0       -4.779333   -0.557416    0.066752
      2          6           0       -3.549936   -0.082020    0.434023
      3          7           0       -2.551557   -0.075006   -0.362804
      4          6           0       -1.327292    0.356214    0.135421
      5          6           0       -0.215811    0.405126   -0.606505
      6          6           0        1.123814    0.856259   -0.107322
      7          6           0        2.196949   -0.245391   -0.175697
      8          6           0        3.578748    0.237514    0.264670
      9          7           0        4.550810   -0.860254    0.216712
     10          1           0       -5.583839   -0.238904    0.580666
     11          1           0       -4.917844   -0.700691   -0.922733
     12          1           0       -3.496577    0.244982    1.482210
     13          1           0       -1.287329    0.671900    1.186058
     14          1           0       -0.281385    0.080416   -1.643219
     15          1           0        1.032548    1.213741    0.926530
     16          1           0        1.470216    1.716388   -0.700690
     17          1           0        2.259042   -0.624693   -1.205834
     18          1           0        1.899558   -1.096244    0.446895
     19          1           0        3.525549    0.589225    1.303182
     20          1           0        3.863882    1.114006   -0.345456
     21          1           0        5.459912   -0.530477    0.527533
     22          1           0        4.677991   -1.157131   -0.747295
 ---------------------------------------------------------------------

 SCF Done:  E(RB3LYP) =  -400.723194010     A.U. after    1 cycles

 The electronic state is 1-A.
 Alpha  occ. eigenvalues --  -14.34847 -14.29908 -14.29857 -10.24876 -10.19480
 Alpha  occ. eigenvalues --  -10.18850 -10.17318 -10.16761 -10.15861  -0.94820
 Alpha  occ. eigenvalues --   -0.87480  -0.86844  -0.78151  -0.72243  -0.65377
 Alpha  occ. eigenvalues --   -0.60226  -0.57674  -0.55761  -0.51865  -0.48157
 Alpha  occ. eigenvalues --   -0.47527  -0.45857  -0.44118  -0.42573  -0.39627
 Alpha  occ. eigenvalues --   -0.38829  -0.37997  -0.34853  -0.34437  -0.32537
 Alpha  occ. eigenvalues --   -0.31906  -0.29139  -0.24846  -0.22768  -0.19435
 Alpha virt. eigenvalues --    0.00560   0.08072   0.08729   0.09107   0.10612
 Alpha virt. eigenvalues --    0.11556   0.12835   0.15259   0.15504   0.16518
 Alpha virt. eigenvalues --    0.17488   0.19250   0.19903   0.20563   0.20921

 Mulliken charges:
               1
     1  N   -0.501562
     2  C    0.104343
     3  N   -0.238360
     4  C    0.045361
     5  C   -0.119831
     6  C   -0.235330
     7  C   -0.141954
     8  C   -0.143908
     9  N   -0.509665
    10  H    0.256957
    11  H    0.260567
    12  H    0.089013
    13  H    0.058964
    14  H    0.079644
    15  H    0.089422
    16  H    0.095576
    17  H    0.086475
    18  H    0.109888
    19  H    0.098792
    20  H    0.073371
    21  H    0.222059
    22  H    0.220179
 Sum of Mulliken charges =  -0.00000

 Dipole moment (field-independent basis, Debye):
    X=             -1.9345    Y=              1.3029    Z=              0.3951  Tot=              2.3656
 Quadrupole moment (field-independent basis, Debye-Ang):
   XX=            -29.3074   YY=            -60.1865   ZZ=            -53.2912
   XY=              2.0649   XZ=             -6.2359   YZ=              3.0328

  Exact polarizability: 163.075   9.599  62.801 -11.625   4.515  77.026
 Approx polarizability: 204.549  16.907  94.205 -28.011   5.063 123.741

                      1                      2                      3
                      A                      A                      A
 Frequencies --     40.1372                68.3699                97.3465
 Red. masses --      4.1587                 2.0065                 2.0653
 Frc consts  --      0.0039                 0.0055                 0.0115
 IR Inten    --      3.6131                 5.4138                 0.8398

                      4                      5                      6
                      A                      A                      A
 Frequencies --    125.3956               142.3862               172.3156
 Red. masses --      2.8052                 3.8010                 2.5501
 Frc consts  --      0.0260                 0.0454                 0.0446
 IR Inten    --      5.9132                 3.2398                 3.0738

                      7                      8                      9
                      A                      A                      A
 Frequencies --    223.3701               254.8736               292.7409
 Red. masses --      2.1611                 1.2007                 2.9136
 Frc consts  --      0.0635                 0.0460                 0.1471
 IR Inten    --      1.2087                38.1002                 2.2388

                     10                     11                     12
                      A                      A                      A
 Frequencies --    328.8571               384.8101               398.9490
 Red. masses --      3.2703                 2.9023                 1.2374
 Frc consts  --      0.2084                 0.2532                 0.1160
 IR Inten    --     15.3759                17.8549               271.3540

                     13                     14                     15
                      A                      A                      A
 Frequencies --    467.9304               533.2665               571.6569
 Red. masses --      3.3123                 3.8602                 1.5417
 Frc consts  --      0.4273                 0.6468                 0.2968
 IR Inten    --     15.5883                 5.3850                95.7369

                     16                     17                     18
                      A                      A                      A
 Frequencies --    615.5743               754.6791               836.1102
 Red. masses --      2.3309                 1.1066                 1.2456
 Frc consts  --      0.5204                 0.3714                 0.5130
 IR Inten    --     17.3068                 3.7068                30.3791

                     19                     20                     21
                      A                      A                      A
 Frequencies --    859.6505               895.7633               968.4389
 Red. masses --      1.5906                 1.4860                 2.1560
 Frc consts  --      0.6926                 0.7025                 1.1914
 IR Inten    --     73.6594                36.2880                 0.9520

                     22                     23                     24
                      A                      A                      A
 Frequencies --    978.4366              1001.3396              1021.6279
 Red. masses --      1.2341                 1.3680                 2.8894
 Frc consts  --      0.6961                 0.8082                 1.7768
 IR Inten    --      5.0924                19.5446                 3.3683

                     25                     26                     27
                      A                      A                      A
 Frequencies --   1041.5059              1056.5416              1085.3949
 Red. masses --      1.7155                 1.9710                 2.5544
 Frc consts  --      1.0964                 1.2963                 1.7730
 IR Inten    --     10.6333                29.8478                10.9952

                     28                     29                     30
                      A                      A                      A
 Frequencies --   1130.2890              1168.5577              1219.4496
 Red. masses --      1.8129                 1.5839                 3.1076
 Frc consts  --      1.3646                 1.2744                 2.7227
 IR Inten    --      5.1492                 3.8229                 9.4789

                     31                     32                     33
                      A                      A                      A
 Frequencies --   1244.4164              1267.7048              1295.7453
 Red. masses --      1.3148                 1.4051                 1.6866
 Frc consts  --      1.1996                 1.3304                 1.6684
 IR Inten    --     11.5335                29.8475                67.5971

                     34                     35                     36
                      A                      A                      A
 Frequencies --   1313.9022              1322.6847              1334.7027
 Red. masses --      1.3238                 1.2261                 1.2483
 Frc consts  --      1.3464                 1.2638                 1.3102
 IR Inten    --     16.1324                18.3017                 3.0061

                     37                     38                     39
                      A                      A                      A
 Frequencies --   1348.9184              1374.7588              1408.4353
 Red. masses --      1.2202                 1.4178                 1.5290
 Frc consts  --      1.3081                 1.5787                 1.7871
 IR Inten    --      2.3275                 5.0760                 9.3102

                     40                     41                     42
                      A                      A                      A
 Frequencies --   1430.0826              1477.8464              1494.9513
 Red. masses --      1.4624                 1.0891                 1.0881
 Frc consts  --      1.7621                 1.4015                 1.4327
 IR Inten    --     22.0379                 2.4979                 1.5249

                     43                     44                     45
                      A                      A                      A
 Frequencies --   1518.5118              1622.8669              1658.3948
 Red. masses --      1.0922                 1.2182                 1.0888
 Frc consts  --      1.4839                 1.8904                 1.7642
 IR Inten    --      0.9125                25.2864                19.8718

                     46                     47                     48
                      A                      A                      A
 Frequencies --   1713.5001              1747.2253              2929.5684
 Red. masses --      6.4338                 5.3942                 1.0727
 Frc consts  --     11.1298                 9.7023                 5.4240
 IR Inten    --    363.2269               261.9323                74.7978

                     49                     50                     51
                      A                      A                      A
 Frequencies --   2986.4547              3007.2752              3019.4149
 Red. masses --      1.0648                 1.0693                 1.0870
 Frc consts  --      5.5955                 5.6978                 5.8386
 IR Inten    --     45.4022                13.7153                30.4944

                     52                     53                     54
                      A                      A                      A
 Frequencies --   3030.7749              3034.6563              3041.0433
 Red. masses --      1.0870                 1.0865                 1.0867
 Frc consts  --      5.8827                 5.8954                 5.9210
 IR Inten    --     56.8890                 7.7986                70.0882

                     55                     56                     57
                      A                      A                      A
 Frequencies --   3077.3324              3149.6062              3481.6140
 Red. masses --      1.0984                 1.0880                 1.0495
 Frc consts  --      6.1284                 6.3590                 7.4951
 IR Inten    --     47.3409                16.6324                 1.8879

                     58                     59                     60
                      A                      A                      A
 Frequencies --   3559.1803              3581.3564              3707.2513
 Red. masses --      1.0917                 1.0463                 1.1005
 Frc consts  --      8.1482                 7.9070                 8.9114
 IR Inten    --      0.5142                56.7544                30.5202

 - Thermochemistry -
 -------------------
 Temperature   298.150 Kelvin.  Pressure   1.00000 Atm.
 Atom     1 has atomic number  7 and mass  14.00307

 Molecular mass:   127.11095 amu.
 Principal axes and moments of inertia in atomic units:
                           1         2         3
     Eigenvalues --   224.815094589.895724646.33915
           X            0.99999   0.00177  -0.00311
           Y           -0.00121   0.98516   0.17162
           Z            0.00337  -0.17162   0.98516
 This molecule is an asymmetric top.
 Rotational symmetry number  1.
 Rotational temperatures (Kelvin)      0.38527     0.01887     0.01864
 Rotational constants (GHZ):           8.02767     0.39320     0.38842
 Zero-point vibrational energy     507910.1 (Joules/Mol)
                                  121.39343 (Kcal/Mol)
 Warning -- explicit consideration of  16 degrees of freedom as
           vibrations may cause significant error
 Vibrational temperatures:     57.75    98.37   140.06   180.42   204.86
          (Kelvin)            247.92   321.38   366.71   421.19   473.15
                              553.66   574.00   673.25   767.25   822.49
                              885.67  1085.81  1202.98  1236.85  1288.80
                             1393.37  1407.75  1440.70  1469.89  1498.49
                             1520.13  1561.64  1626.23  1681.29  1754.52
                             1790.44  1823.94  1864.29  1890.41  1903.05
                             1920.34  1940.79  1977.97  2026.42  2057.57
                             2126.29  2150.90  2184.80  2334.94  2386.06
                             2465.34  2513.87  4215.00  4296.84  4326.80
                             4344.26  4360.61  4366.19  4375.38  4427.59
                             4531.58  5009.27  5120.87  5152.77  5333.91

 Zero-point correction=                           0.193453 (Hartree/Particle)
 Thermal correction to Energy=                    0.204557
 Thermal correction to Enthalpy=                  0.205502
 Thermal correction to Gibbs Free Energy=         0.156132
 Sum of electronic and zero-point Energies=           -400.529741
 Sum of electronic and thermal Energies=              -400.518637
 Sum of electronic and thermal Enthalpies=            -400.517692
 Sum of electronic and thermal Free Energies=         -400.567062

                     E (Thermal)             CV                S
                      KCal/Mol        Cal/Mol-Kelvin    Cal/Mol-Kelvin
 Total                  128.362             39.284            103.908
 Electronic               0.000              0.000              0.000
 Translational            0.889              2.981             40.433
 Rotational               0.889              2.981             29.951
 Vibrational            126.584             33.323             33.524
 Vibration     1          0.594              1.981              5.252
 Vibration     2          0.598              1.969              4.200
 Vibration     3          0.603              1.951              3.507
 Vibration     4          0.610              1.928              3.015
 Vibration     5          0.616              1.911              2.772
 Vibration     6          0.626              1.877              2.410
 Vibration     7          0.649              1.805              1.932
 Vibration     8          0.665              1.755              1.697
 Vibration     9          0.688              1.687              1.458
 Vibration    10          0.712              1.618              1.266
 Vibration    11          0.754              1.503              1.020
 Vibration    12          0.765              1.472              0.967
 Vibration    13          0.825              1.321              0.743
 Vibration    14          0.888              1.176              0.580
 Vibration    15          0.928              1.093              0.501
 Vibration    16          0.975              0.999              0.424

 Optimization completed.
    -- Stationary point found.
 Normal termination of Gaussian 16 at Mon May 31 16:10:53 2021.
