 Gaussian 16, Revision A.03,
 Gaussian 16:  ES64L-G16RevA.03 25-Dec-2016

 -----------------------------
 # opt freq b3lyp/6-31g(2df,p)
 -----------------------------

 -------------------
 Title Card Required
 -------------------
 Symbolic Z-matrix:
 Charge =  0 Multiplicity = 1

 SCF Done:  E(RB3LYP) =  -508.965861800     A.U. after   14 cycles
 SCF Done:  E(RB3LYP) =  -508.974624064     A.U. after   13 cycles
 SCF Done:  E(RB3LYP) =  -508.977996631     A.U. after   13 cycles
 SCF Done:  E(RB3LYP) =  -508.979499413     A.U. after   13 cycles
 SCF Done:  E(RB3LYP) =  -508.979846955     A.U. after   12 cycles
 SCF Done:  E(RB3LYP) =  -508.980067395     A.U. after   12 cycles
 SCF Done:  E(RB3LYP) =  -508.980121075     A.U. after   11 cycles
 SCF Done:  E(RB3LYP) =  -508.980139054     A.U. after   10 cycles
 SCF Done:  E(RB3LYP) =  -508.980141589     A.U. after    8 cycles
 SCF Done:  E(RB3LYP) =  -508.980142536     A.U. after    8 cycles
 SCF Done:  E(RB3LYP) =  -508.980142976     A.U. after    8 cycles
 SCF Done:  E(RB3LYP) =  -508.980143066     A.U. after    7 cycles
 Optimization completed.
    -- Stationary point found.
 Normal termination of Gaussian 16 at Tue Jun  1 04:04:27 2021.

 ----------------------------------------------------------------------
 #N Geom=AllCheck Guess=TCheck SCRF=Check GenChk RB3LYP/6-31G(2df,p) Fr
 eq
 ----------------------------------------------------------------------

 Structure from the checkpoint file:  "NCdNNC1dCNdCNCC1.chk"
 -------------------
 Title Card Required
 -------------------
 Charge =  0 Multiplicity = 1

                         Standard orientation:
 ---------------------------------------------------------------------
 Center     Atomic      Atomic             Coordinates (Angstroms)
 Number     Number       Type             X           Y           Z
 ---------------------------------------------------------------------
      1          7           0        4.477130    0.544401    0.099224
      2          6           0        3.377997   -0.284215   -0.074142
      3          7           0        2.198411    0.088570    0.230066
      4          7           0        1.166648   -0.785870   -0.025326
      5          6           0       -0.129315   -0.259675   -0.209898
      6          6           0       -0.412303    1.055158   -0.094189
      7          7           0       -1.638350    1.704926   -0.176157
      8          6           0       -2.802007    1.187700   -0.062972
      9          7           0       -3.210286   -0.099670    0.186366
     10          6           0       -2.365529   -1.231897    0.500354
     11          6           0       -1.156085   -1.332806   -0.452390
     12          1           0        5.324795    0.068902    0.375702
     13          1           0        4.277334    1.343440    0.687569
     14          1           0        3.605888   -1.248994   -0.543684
     15          1           0        1.396387   -1.543477   -0.666600
     16          1           0        0.424461    1.729901    0.046921
     17          1           0       -3.658181    1.855349   -0.187511
     18          1           0       -4.202545   -0.230908    0.289062
     19          1           0       -2.985430   -2.130837    0.408009
     20          1           0       -1.995551   -1.198211    1.533642
     21          1           0       -1.528323   -1.303864   -1.482974
     22          1           0       -0.690251   -2.313390   -0.299936
 ---------------------------------------------------------------------

 SCF Done:  E(RB3LYP) =  -508.980143066     A.U. after    1 cycles

 The electronic state is 1-A.
 Alpha  occ. eigenvalues --  -14.35816 -14.34067 -14.33982 -14.33488 -14.27791
 Alpha  occ. eigenvalues --  -10.24124 -10.22631 -10.22056 -10.19195 -10.18754
 Alpha  occ. eigenvalues --  -10.16319  -0.99330  -0.94147  -0.91339  -0.86102
 Alpha  occ. eigenvalues --   -0.82058  -0.75816  -0.68519  -0.66549  -0.60760
 Alpha  occ. eigenvalues --   -0.57447  -0.55331  -0.53468  -0.51789  -0.49963
 Alpha  occ. eigenvalues --   -0.47940  -0.45672  -0.43806  -0.42053  -0.41070
 Alpha  occ. eigenvalues --   -0.40231  -0.38739  -0.36484  -0.34715  -0.33537
 Alpha  occ. eigenvalues --   -0.31651  -0.27246  -0.25991  -0.22189  -0.21483
 Alpha  occ. eigenvalues --   -0.15360
 Alpha virt. eigenvalues --    0.01212   0.04090   0.07388   0.08150   0.09411
 Alpha virt. eigenvalues --    0.11377   0.12072   0.13334   0.15030   0.16029
 Alpha virt. eigenvalues --    0.16445   0.16787   0.17951   0.20102   0.21255

 Mulliken charges:
               1
     1  N   -0.508056
     2  C    0.080515
     3  N   -0.141905
     4  N   -0.337741
     5  C    0.284777
     6  C   -0.094592
     7  N   -0.274115
     8  C    0.073762
     9  N   -0.281910
    10  C   -0.159176
    11  C   -0.306532
    12  H    0.249599
    13  H    0.257118
    14  H    0.082988
    15  H    0.216424
    16  H    0.092806
    17  H    0.092271
    18  H    0.239747
    19  H    0.099361
    20  H    0.119444
    21  H    0.119690
    22  H    0.095526
 Sum of Mulliken charges =  -0.00000

 Dipole moment (field-independent basis, Debye):
    X=              0.7466    Y=             -4.1045    Z=              0.4054  Tot=              4.1915
 Quadrupole moment (field-independent basis, Debye-Ang):
   XX=            -37.9140   YY=            -65.8365   ZZ=            -66.4322
   XY=              2.0014   XZ=              1.7184   YZ=              3.3999

  Exact polarizability: 182.031  -5.192  99.290  -2.055   3.323  57.856
 Approx polarizability: 248.884 -12.799 164.586  -6.753   5.086  92.104

                      1                      2                      3
                      A                      A                      A
 Frequencies --     35.4582                70.7609                99.4693
 Red. masses --      4.8913                 3.3149                 3.6783
 Frc consts  --      0.0036                 0.0098                 0.0214
 IR Inten    --      0.6973                 7.4069                 5.4793

                      4                      5                      6
                      A                      A                      A
 Frequencies --    123.0983               195.6244               231.3253
 Red. masses --      2.2273                 2.6942                 2.6485
 Frc consts  --      0.0199                 0.0607                 0.0835
 IR Inten    --      5.0253                22.1041                 6.8251

                      7                      8                      9
                      A                      A                      A
 Frequencies --    280.3153               311.0981               317.5713
 Red. masses --      3.2692                 2.7255                 2.3067
 Frc consts  --      0.1513                 0.1554                 0.1371
 IR Inten    --     15.7643                31.6913                41.3785

                     10                     11                     12
                      A                      A                      A
 Frequencies --    350.0897               391.1548               399.6860
 Red. masses --      1.9098                 1.3788                 3.2511
 Frc consts  --      0.1379                 0.1243                 0.3060
 IR Inten    --     33.3975               102.8005                 5.5538

                     13                     14                     15
                      A                      A                      A
 Frequencies --    472.1656               521.1007               559.7184
 Red. masses --      3.7249                 2.2347                 3.5541
 Frc consts  --      0.4893                 0.3575                 0.6560
 IR Inten    --     10.5164                34.2991                36.3098

                     16                     17                     18
                      A                      A                      A
 Frequencies --    612.1087               624.9262               684.9382
 Red. masses --      3.0402                 2.4603                 1.6526
 Frc consts  --      0.6711                 0.5661                 0.4568
 IR Inten    --      5.0626                15.8968               245.3510

                     19                     20                     21
                      A                      A                      A
 Frequencies --    695.1215               790.2725               861.8587
 Red. masses --      1.8957                 3.8727                 3.4114
 Frc consts  --      0.5397                 1.4250                 1.4930
 IR Inten    --    117.0753                23.1618                14.3213

                     22                     23                     24
                      A                      A                      A
 Frequencies --    894.8150               913.2114               936.9068
 Red. masses --      1.9037                 1.9936                 1.3930
 Frc consts  --      0.8981                 0.9796                 0.7204
 IR Inten    --      6.4082                 8.7717                 1.8195

                     25                     26                     27
                      A                      A                      A
 Frequencies --    944.3751               970.7900               994.3875
 Red. masses --      1.4451                 2.8929                 2.3242
 Frc consts  --      0.7593                 1.6063                 1.3541
 IR Inten    --      9.8333                53.6049                 6.4318

                     28                     29                     30
                      A                      A                      A
 Frequencies --   1063.8347              1067.2851              1123.2139
 Red. masses --      1.9822                 2.2067                 2.7909
 Frc consts  --      1.3217                 1.4810                 2.0745
 IR Inten    --     23.4748                 2.2823                 3.0035

                     31                     32                     33
                      A                      A                      A
 Frequencies --   1158.8463              1207.6590              1251.2399
 Red. masses --      2.4600                 1.5669                 1.8603
 Frc consts  --      1.9465                 1.3464                 1.7160
 IR Inten    --     70.5895               113.7472                77.1037

                     34                     35                     36
                      A                      A                      A
 Frequencies --   1266.9873              1295.3855              1303.9176
 Red. masses --      1.8172                 2.2253                 1.3916
 Frc consts  --      1.7187                 2.2001                 1.3940
 IR Inten    --     37.2583                29.9395                30.4112

                     37                     38                     39
                      A                      A                      A
 Frequencies --   1349.1694              1366.0582              1379.6045
 Red. masses --      1.2529                 1.3286                 1.2812
 Frc consts  --      1.3437                 1.4608                 1.4368
 IR Inten    --      6.2418                 8.8074                32.9037

                     40                     41                     42
                      A                      A                      A
 Frequencies --   1418.5644              1465.4735              1469.3011
 Red. masses --      1.5668                 1.2638                 1.1168
 Frc consts  --      1.8576                 1.5992                 1.4206
 IR Inten    --      4.9648                 2.3999                 4.0825

                     43                     44                     45
                      A                      A                      A
 Frequencies --   1505.8990              1520.7133              1534.0274
 Red. masses --      1.2108                 1.4478                 1.4238
 Frc consts  --      1.6177                 1.9726                 1.9740
 IR Inten    --     38.9498                27.3137                55.0810

                     46                     47                     48
                      A                      A                      A
 Frequencies --   1630.5174              1669.5709              1718.5947
 Red. masses --      1.1783                 5.5547                 7.7580
 Frc consts  --      1.8457                 9.1227                13.5004
 IR Inten    --     32.9176               156.5691               241.4646

                     49                     50                     51
                      A                      A                      A
 Frequencies --   1748.0845              3007.9170              3027.1063
 Red. masses --      6.4751                 1.0645                 1.0604
 Frc consts  --     11.6579                 5.6743                 5.7250
 IR Inten    --    128.8730                48.8111                17.6647

                     52                     53                     54
                      A                      A                      A
 Frequencies --   3043.2906              3056.7352              3071.4479
 Red. masses --      1.0865                 1.0977                 1.1034
 Frc consts  --      5.9290                 6.0427                 6.1331
 IR Inten    --     41.4753                47.3008                23.8221

                     55                     56                     57
                      A                      A                      A
 Frequencies --   3091.7584              3187.9876              3436.7118
 Red. masses --      1.0865                 1.0870                 1.0740
 Frc consts  --      6.1194                 6.5090                 7.4740
 IR Inten    --     40.4369                20.2539                 4.9168

                     58                     59                     60
                      A                      A                      A
 Frequencies --   3541.8500              3641.1207              3649.2611
 Red. masses --      1.0466                 1.0771                 1.0978
 Frc consts  --      7.7356                 8.4137                 8.6139
 IR Inten    --     16.8310                31.7864                13.4622

 - Thermochemistry -
 -------------------
 Temperature   298.150 Kelvin.  Pressure   1.00000 Atm.
 Atom     1 has atomic number  7 and mass  14.00307

 Molecular mass:   153.10145 amu.
 Principal axes and moments of inertia in atomic units:
                           1         2         3
     Eigenvalues --   589.034873534.093094020.90289
           X            0.99997   0.00809  -0.00016
           Y           -0.00808   0.99983   0.01629
           Z            0.00029  -0.01629   0.99987
 This molecule is an asymmetric top.
 Rotational symmetry number  1.
 Warning -- assumption of classical behavior for rotation
           may cause significant error
 Rotational temperatures (Kelvin)      0.14704     0.02451     0.02154
 Rotational constants (GHZ):           3.06390     0.51067     0.44884
 Zero-point vibrational energy     481804.9 (Joules/Mol)
                                  115.15413 (Kcal/Mol)
 Warning -- explicit consideration of  16 degrees of freedom as
           vibrations may cause significant error
 Vibrational temperatures:     51.02   101.81   143.11   177.11   281.46
          (Kelvin)            332.83   403.31   447.60   456.91   503.70
                              562.78   575.06   679.34   749.75   805.31
                              880.69   899.13   985.47  1000.12  1137.03
                             1240.02  1287.44  1313.91  1348.00  1358.75
                             1396.75  1430.70  1530.62  1535.59  1616.05
                             1667.32  1737.55  1800.26  1822.91  1863.77
                             1876.05  1941.15  1965.45  1984.94  2041.00
                             2108.49  2114.00  2166.65  2187.97  2207.12
                             2345.95  2402.14  2472.67  2515.10  4327.72
                             4355.33  4378.62  4397.96  4419.13  4448.35
                             4586.80  4944.66  5095.93  5238.76  5250.47

 Zero-point correction=                           0.183510 (Hartree/Particle)
 Thermal correction to Energy=                    0.194572
 Thermal correction to Enthalpy=                  0.195516
 Thermal correction to Gibbs Free Energy=         0.146095
 Sum of electronic and zero-point Energies=           -508.796633
 Sum of electronic and thermal Energies=              -508.785571
 Sum of electronic and thermal Enthalpies=            -508.784627
 Sum of electronic and thermal Free Energies=         -508.834048

                     E (Thermal)             CV                S
                      KCal/Mol        Cal/Mol-Kelvin    Cal/Mol-Kelvin
 Total                  122.096             41.121            104.014
 Electronic               0.000              0.000              0.000
 Translational            0.889              2.981             40.988
 Rotational               0.889              2.981             30.505
 Vibrational            120.318             35.160             32.522
 Vibration     1          0.594              1.982              5.498
 Vibration     2          0.598              1.968              4.132
 Vibration     3          0.604              1.949              3.465
 Vibration     4          0.610              1.930              3.051
 Vibration     5          0.636              1.846              2.174
 Vibration     6          0.653              1.793              1.869
 Vibration     7          0.680              1.710              1.532
 Vibration     8          0.700              1.653              1.356
 Vibration     9          0.704              1.640              1.323
 Vibration    10          0.727              1.575              1.166
 Vibration    11          0.759              1.489              0.996
 Vibration    12          0.766              1.471              0.964
 Vibration    13          0.829              1.312              0.732
 Vibration    14          0.876              1.203              0.607
 Vibration    15          0.915              1.118              0.524
 Vibration    16          0.971              1.006              0.429

                           ! Non-Optimized Parameters !
 Normal termination of Gaussian 16 at Tue Jun  1 04:46:10 2021.
