 Gaussian 16, Revision A.03,
 Gaussian 16:  ES64L-G16RevA.03 25-Dec-2016

 -----------------------------
 # opt freq b3lyp/6-31g(2df,p)
 -----------------------------

 -------------------
 Title Card Required
 -------------------
 Symbolic Z-matrix:
 Charge =  0 Multiplicity = 1

 SCF Done:  E(RB3LYP) =  -525.743499425     A.U. after   21 cycles
 SCF Done:  E(RB3LYP) =  -525.826992217     A.U. after   17 cycles
 SCF Done:  E(RB3LYP) =  -525.925937855     A.U. after   16 cycles
 SCF Done:  E(RB3LYP) =  -526.010400437     A.U. after   15 cycles
 SCF Done:  E(RB3LYP) =  -526.063097369     A.U. after   13 cycles
 SCF Done:  E(RB3LYP) =  -526.095486101     A.U. after   14 cycles
 SCF Done:  E(RB3LYP) =  -526.117050722     A.U. after   14 cycles
 SCF Done:  E(RB3LYP) =  -526.138360460     A.U. after   14 cycles
 SCF Done:  E(RB3LYP) =  -526.148982824     A.U. after   14 cycles
 SCF Done:  E(RB3LYP) =  -526.152321068     A.U. after   13 cycles
 SCF Done:  E(RB3LYP) =  -526.153888604     A.U. after   12 cycles
 SCF Done:  E(RB3LYP) =  -526.154045593     A.U. after   12 cycles
 SCF Done:  E(RB3LYP) =  -526.154650806     A.U. after   12 cycles
 SCF Done:  E(RB3LYP) =  -526.154666871     A.U. after   10 cycles
 SCF Done:  E(RB3LYP) =  -526.154777926     A.U. after   11 cycles
 SCF Done:  E(RB3LYP) =  -526.154783476     A.U. after    8 cycles
 SCF Done:  E(RB3LYP) =  -526.154785643     A.U. after    8 cycles
 SCF Done:  E(RB3LYP) =  -526.154785932     A.U. after    7 cycles
 Optimization completed.
    -- Stationary point found.
 Normal termination of Gaussian 16 at Mon May 31 20:37:49 2021.

 ----------------------------------------------------------------------
 #N Geom=AllCheck Guess=TCheck SCRF=Check GenChk RB3LYP/6-31G(2df,p) Fr
 eq
 ----------------------------------------------------------------------

 Structure from the checkpoint file:  "NCN1CCdNCNdCNN1.chk"
 -------------------
 Title Card Required
 -------------------
 Charge =  0 Multiplicity = 1

                         Standard orientation:
 ---------------------------------------------------------------------
 Center     Atomic      Atomic             Coordinates (Angstroms)
 Number     Number       Type             X           Y           Z
 ---------------------------------------------------------------------
      1          7           0       -3.109313    0.783938   -0.653860
      2          6           0       -2.584506   -0.479036   -0.153698
      3          7           0       -1.133799   -0.367824   -0.053885
      4          6           0       -0.464299   -1.643881    0.257735
      5          6           0        0.910806   -1.456926   -0.348757
      6          7           0        1.873730   -1.026888    0.355590
      7          6           0        2.807370   -0.156415   -0.361527
      8          7           0        2.170235    1.115398   -0.718592
      9          6           0        1.089951    1.521457   -0.179048
     10          7           0        0.471809    1.091669    1.012396
     11          7           0       -0.869458    0.642632    1.013862
     12          1           0       -4.111846    0.839768   -0.517116
     13          1           0       -2.916192    0.882044   -1.645074
     14          1           0       -2.791057   -1.346972   -0.796840
     15          1           0       -3.049275   -0.663042    0.830407
     16          1           0       -1.021270   -2.450177   -0.229930
     17          1           0       -0.407838   -1.836396    1.336942
     18          1           0        0.922417   -1.414403   -1.449272
     19          1           0        3.141369   -0.606168   -1.309786
     20          1           0        3.696105    0.026330    0.252423
     21          1           0        0.580746    2.372639   -0.639080
     22          1           0        1.034275    0.392398    1.483882
     23          1           0       -1.455793    1.420303    0.706639
 ---------------------------------------------------------------------

 SCF Done:  E(RB3LYP) =  -526.154785932     A.U. after    1 cycles

 The electronic state is 1-A.
 Alpha  occ. eigenvalues --  -14.37064 -14.35371 -14.34682 -14.32866 -14.31933
 Alpha  occ. eigenvalues --  -14.30766 -10.24488 -10.23951 -10.23084 -10.22593
 Alpha  occ. eigenvalues --  -10.21927  -1.01102  -0.94480  -0.92217  -0.88679
 Alpha  occ. eigenvalues --   -0.85174  -0.77250  -0.70958  -0.68221  -0.62117
 Alpha  occ. eigenvalues --   -0.58824  -0.56372  -0.52727  -0.51850  -0.49563
 Alpha  occ. eigenvalues --   -0.48559  -0.47057  -0.45750  -0.45060  -0.41942
 Alpha  occ. eigenvalues --   -0.41392  -0.40012  -0.38818  -0.38360  -0.34444
 Alpha  occ. eigenvalues --   -0.31893  -0.30111  -0.26473  -0.25740  -0.23830
 Alpha  occ. eigenvalues --   -0.22610  -0.20590
 Alpha virt. eigenvalues --   -0.01989   0.01492   0.07081   0.10164   0.10877
 Alpha virt. eigenvalues --    0.12301   0.12761   0.13402   0.14114   0.15406
 Alpha virt. eigenvalues --    0.16548   0.17498   0.18557   0.18718   0.19710

 Mulliken charges:
               1
     1  N   -0.505515
     2  C   -0.101422
     3  N   -0.084093
     4  C   -0.190474
     5  C    0.028162
     6  N   -0.167528
     7  C   -0.132850
     8  N   -0.227921
     9  C    0.087746
    10  N   -0.249127
    11  N   -0.280526
    12  H    0.237078
    13  H    0.236664
    14  H    0.093817
    15  H    0.100965
    16  H    0.105348
    17  H    0.115893
    18  H    0.090500
    19  H    0.109596
    20  H    0.116029
    21  H    0.105713
    22  H    0.257391
    23  H    0.254554
 Sum of Mulliken charges =  -0.00000

 Dipole moment (field-independent basis, Debye):
    X=             -3.4123    Y=             -1.6818    Z=             -1.4912  Tot=              4.0861
 Quadrupole moment (field-independent basis, Debye-Ang):
   XX=            -57.5366   YY=            -65.7925   ZZ=            -67.5073
   XY=             -1.6622   XZ=              4.4438   YZ=              1.2437

  Exact polarizability: 125.468   0.097  90.393  -3.610   0.317  76.661
 Approx polarizability: 176.600   0.111 138.902  -5.919   4.659 130.594

                      1                      2                      3
                      A                      A                      A
 Frequencies --     71.2427               121.4039               175.6014
 Red. masses --      4.0385                 3.0689                 2.2777
 Frc consts  --      0.0121                 0.0267                 0.0414
 IR Inten    --      0.7781                 2.1317                 2.0982

                      4                      5                      6
                      A                      A                      A
 Frequencies --    220.9954               255.8715               274.5963
 Red. masses --      4.4665                 3.5426                 1.6517
 Frc consts  --      0.1285                 0.1367                 0.0734
 IR Inten    --      0.7443                 4.9134                16.6402

                      7                      8                      9
                      A                      A                      A
 Frequencies --    303.7825               320.6056               348.5856
 Red. masses --      1.9333                 2.5953                 3.1460
 Frc consts  --      0.1051                 0.1572                 0.2252
 IR Inten    --     13.9675                23.3244                 7.5334

                     10                     11                     12
                      A                      A                      A
 Frequencies --    384.4141               432.5534               447.4794
 Red. masses --      3.3230                 3.4218                 3.4791
 Frc consts  --      0.2893                 0.3772                 0.4105
 IR Inten    --      2.9667                 3.8520                14.2188

                     13                     14                     15
                      A                      A                      A
 Frequencies --    472.2933               536.9456               559.7112
 Red. masses --      4.1417                 2.6921                 2.7149
 Frc consts  --      0.5443                 0.4573                 0.5011
 IR Inten    --      7.3660                 9.1279                 7.9800

                     16                     17                     18
                      A                      A                      A
 Frequencies --    616.3162               731.5990               774.3763
 Red. masses --      3.0114                 5.9786                 3.2573
 Frc consts  --      0.6739                 1.8854                 1.1508
 IR Inten    --      9.3670                13.4364                22.9875

                     19                     20                     21
                      A                      A                      A
 Frequencies --    830.7585               833.7395               881.2759
 Red. masses --      1.4190                 1.8605                 2.7354
 Frc consts  --      0.5770                 0.7620                 1.2517
 IR Inten    --    168.7096                79.3920                38.6063

                     22                     23                     24
                      A                      A                      A
 Frequencies --    907.2236               934.4682               965.5281
 Red. masses --      2.5227                 1.9882                 2.0258
 Frc consts  --      1.2233                 1.0229                 1.1127
 IR Inten    --     22.6536                11.4454                11.3340

                     25                     26                     27
                      A                      A                      A
 Frequencies --    982.6594              1006.6239              1034.1641
 Red. masses --      1.9668                 1.5194                 4.3440
 Frc consts  --      1.1190                 0.9071                 2.7372
 IR Inten    --      6.9715                 6.4383                14.4866

                     28                     29                     30
                      A                      A                      A
 Frequencies --   1050.8947              1078.4677              1101.0230
 Red. masses --      2.1079                 2.6160                 2.0696
 Frc consts  --      1.3716                 1.7927                 1.4782
 IR Inten    --      8.7999                 0.2019                60.5929

                     31                     32                     33
                      A                      A                      A
 Frequencies --   1106.8112              1149.6995              1160.3024
 Red. masses --      2.8966                 3.3747                 3.2326
 Frc consts  --      2.0906                 2.6282                 2.5642
 IR Inten    --     48.8491                24.0876               126.4103

                     34                     35                     36
                      A                      A                      A
 Frequencies --   1215.0287              1245.8061              1256.3617
 Red. masses --      1.4013                 1.0908                 1.3291
 Frc consts  --      1.2188                 0.9974                 1.2361
 IR Inten    --     21.3366                 1.7683                12.0696

                     37                     38                     39
                      A                      A                      A
 Frequencies --   1269.5560              1333.1761              1345.6063
 Red. masses --      1.7219                 1.3262                 1.2370
 Frc consts  --      1.6352                 1.3888                 1.3197
 IR Inten    --     23.2642                20.6796                29.5404

                     40                     41                     42
                      A                      A                      A
 Frequencies --   1355.0743              1395.1714              1400.0736
 Red. masses --      1.2342                 1.2896                 1.2115
 Frc consts  --      1.3352                 1.4789                 1.3992
 IR Inten    --      3.5703                14.4093                 7.6236

                     43                     44                     45
                      A                      A                      A
 Frequencies --   1439.6010              1468.9016              1491.7328
 Red. masses --      1.3334                 1.1015                 1.1352
 Frc consts  --      1.6282                 1.4003                 1.4883
 IR Inten    --     42.6675                 5.0613                 3.8674

                     46                     47                     48
                      A                      A                      A
 Frequencies --   1499.3664              1503.0192              1582.2179
 Red. masses --      1.1241                 1.0940                 1.1647
 Frc consts  --      1.4889                 1.4561                 1.7179
 IR Inten    --     17.4434                 5.9560                19.7654

                     49                     50                     51
                      A                      A                      A
 Frequencies --   1643.0526              1701.5682              1726.4338
 Red. masses --      1.1012                 5.3825                 7.1040
 Frc consts  --      1.7516                 9.1819                12.4753
 IR Inten    --     33.7723                87.6413               106.0989

                     52                     53                     54
                      A                      A                      A
 Frequencies --   2953.1058              2978.9958              2992.7594
 Red. masses --      1.0594                 1.0698                 1.0850
 Frc consts  --      5.4433                 5.5938                 5.7259
 IR Inten    --     76.4819                65.7843                45.1940

                     55                     56                     57
                      A                      A                      A
 Frequencies --   3001.0481              3018.9364              3059.9748
 Red. masses --      1.1005                 1.0598                 1.0925
 Frc consts  --      5.8395                 5.6907                 6.0273
 IR Inten    --     38.4514                48.4920                38.0977

                     58                     59                     60
                      A                      A                      A
 Frequencies --   3086.3695              3092.3530              3446.9145
 Red. masses --      1.1038                 1.0879                 1.0748
 Frc consts  --      6.1947                 6.1292                 7.5237
 IR Inten    --     23.6738                31.4352                25.3959

                     61                     62                     63
                      A                      A                      A
 Frequencies --   3512.4106              3521.6871              3603.0097
 Red. masses --      1.0491                 1.0751                 1.0936
 Frc consts  --      7.6257                 7.8563                 8.3646
 IR Inten    --      1.0840                38.4700                 3.2189

 - Thermochemistry -
 -------------------
 Temperature   298.150 Kelvin.  Pressure   1.00000 Atm.
 Atom     1 has atomic number  7 and mass  14.00307

 Molecular mass:   156.11234 amu.
 Principal axes and moments of inertia in atomic units:
                           1         2         3
     Eigenvalues --   852.693222203.783442617.48135
           X            0.99999  -0.00074   0.00402
           Y            0.00075   1.00000  -0.00262
           Z           -0.00401   0.00262   0.99999
 This molecule is an asymmetric top.
 Rotational symmetry number  1.
 Warning -- assumption of classical behavior for rotation
           may cause significant error
 Rotational temperatures (Kelvin)      0.10158     0.03930     0.03309
 Rotational constants (GHZ):           2.11652     0.81893     0.68950
 Zero-point vibrational energy     515658.2 (Joules/Mol)
                                  123.24528 (Kcal/Mol)
 Warning -- explicit consideration of  16 degrees of freedom as
           vibrations may cause significant error
 Vibrational temperatures:    102.50   174.67   252.65   317.96   368.14
          (Kelvin)            395.08   437.08   461.28   501.54   553.09
                              622.35   643.82   679.52   772.54   805.30
                              886.74  1052.61  1114.15  1195.28  1199.57
                             1267.96  1305.29  1344.49  1389.18  1413.83
                             1448.31  1487.93  1512.00  1551.67  1584.13
                             1592.45  1654.16  1669.42  1748.16  1792.44
                             1807.62  1826.61  1918.14  1936.03  1949.65
                             2007.34  2014.39  2071.26  2113.42  2146.27
                             2157.25  2162.51  2276.46  2363.99  2448.18
                             2483.95  4248.86  4286.11  4305.91  4317.84
                             4343.58  4402.62  4440.60  4449.21  4959.34
                             5053.58  5066.92  5183.93

 Zero-point correction=                           0.196404 (Hartree/Particle)
 Thermal correction to Energy=                    0.206519
 Thermal correction to Enthalpy=                  0.207463
 Thermal correction to Gibbs Free Energy=         0.161398
 Sum of electronic and zero-point Energies=           -525.958382
 Sum of electronic and thermal Energies=              -525.948267
 Sum of electronic and thermal Enthalpies=            -525.947323
 Sum of electronic and thermal Free Energies=         -525.993388

                     E (Thermal)             CV                S
                      KCal/Mol        Cal/Mol-Kelvin    Cal/Mol-Kelvin
 Total                  129.593             39.943             96.952
 Electronic               0.000              0.000              0.000
 Translational            0.889              2.981             41.046
 Rotational               0.889              2.981             29.976
 Vibrational            127.815             33.982             25.929
 Vibration     1          0.598              1.968              4.119
 Vibration     2          0.609              1.931              3.078
 Vibration     3          0.628              1.872              2.375
 Vibration     4          0.648              1.809              1.951
 Vibration     5          0.666              1.753              1.690
 Vibration     6          0.677              1.720              1.567
 Vibration     7          0.695              1.667              1.396
 Vibration     8          0.706              1.634              1.307
 Vibration     9          0.726              1.578              1.173
 Vibration    10          0.753              1.503              1.022
 Vibration    11          0.793              1.399              0.850
 Vibration    12          0.807              1.366              0.803
 Vibration    13          0.829              1.312              0.731
 Vibration    14          0.892              1.168              0.572
 Vibration    15          0.915              1.118              0.524
 Vibration    16          0.976              0.997              0.422

 Optimization completed.
    -- Stationary point found.
 Normal termination of Gaussian 16 at Mon May 31 21:34:51 2021.
