 Gaussian 16, Revision A.03,
 Gaussian 16:  ES64L-G16RevA.03 25-Dec-2016

 -----------------------------
 # opt freq b3lyp/6-31g(2df,p)
 -----------------------------

 -------------------
 Title Card Required
 -------------------
 Symbolic Z-matrix:
 Charge =  0 Multiplicity = 1

 SCF Done:  E(RB3LYP) =  -361.368169264     A.U. after   13 cycles
 SCF Done:  E(RB3LYP) =  -361.375481843     A.U. after   12 cycles
 SCF Done:  E(RB3LYP) =  -361.377626461     A.U. after   11 cycles
 SCF Done:  E(RB3LYP) =  -361.380260620     A.U. after   11 cycles
 SCF Done:  E(RB3LYP) =  -361.384618571     A.U. after   13 cycles
 SCF Done:  E(RB3LYP) =  -361.386400632     A.U. after   11 cycles
 SCF Done:  E(RB3LYP) =  -361.387632574     A.U. after   12 cycles
 SCF Done:  E(RB3LYP) =  -361.388045364     A.U. after   12 cycles
 SCF Done:  E(RB3LYP) =  -361.388730702     A.U. after   11 cycles
 SCF Done:  E(RB3LYP) =  -361.390978688     A.U. after   12 cycles
 SCF Done:  E(RB3LYP) =  -361.395159234     A.U. after   12 cycles
 SCF Done:  E(RB3LYP) =  -361.396040186     A.U. after   12 cycles
 SCF Done:  E(RB3LYP) =  -361.396265715     A.U. after   12 cycles
 SCF Done:  E(RB3LYP) =  -361.396682028     A.U. after   11 cycles
 SCF Done:  E(RB3LYP) =  -361.396791633     A.U. after   10 cycles
 SCF Done:  E(RB3LYP) =  -361.396800012     A.U. after    8 cycles
 SCF Done:  E(RB3LYP) =  -361.396802770     A.U. after    8 cycles
 SCF Done:  E(RB3LYP) =  -361.396803618     A.U. after    7 cycles
 SCF Done:  E(RB3LYP) =  -361.396803738     A.U. after    7 cycles
 Optimization completed.
    -- Stationary point found.
 Normal termination of Gaussian 16 at Wed Jun  2 00:27:59 2021.

 ----------------------------------------------------------------------
 #N Geom=AllCheck Guess=TCheck SCRF=Check GenChk RB3LYP/6-31G(2df,p) Fr
 eq
 ----------------------------------------------------------------------

 Structure from the checkpoint file:  "NCN1CCCdNC1.chk"
 -------------------
 Title Card Required
 -------------------
 Charge =  0 Multiplicity = 1

                         Standard orientation:
 ---------------------------------------------------------------------
 Center     Atomic      Atomic             Coordinates (Angstroms)
 Number     Number       Type             X           Y           Z
 ---------------------------------------------------------------------
      1          7           0       -2.664809   -0.255074   -0.295938
      2          6           0       -1.429971    0.488136   -0.506016
      3          7           0       -0.525126    0.228506    0.607050
      4          6           0        0.566069    1.188162    0.730034
      5          6           0        1.627447    0.995725   -0.365517
      6          6           0        1.886569   -0.480370   -0.578211
      7          7           0        1.185930   -1.440448   -0.135500
      8          6           0       -0.015676   -1.136745    0.647927
      9          1           0       -3.269518   -0.174504   -1.106574
     10          1           0       -3.160741    0.125263    0.504130
     11          1           0       -1.560572    1.582907   -0.552703
     12          1           0       -1.029770    0.171182   -1.486068
     13          1           0        1.032325    1.039869    1.712267
     14          1           0        0.161771    2.205647    0.716206
     15          1           0        2.568118    1.496453   -0.104383
     16          1           0        1.306246    1.443834   -1.316480
     17          1           0        2.774338   -0.739820   -1.164661
     18          1           0        0.215380   -1.411211    1.686929
     19          1           0       -0.816174   -1.799949    0.312745
 ---------------------------------------------------------------------

 SCF Done:  E(RB3LYP) =  -361.396803738     A.U. after    1 cycles

 The electronic state is 1-A.
 Alpha  occ. eigenvalues --  -14.31470 -14.30972 -14.30897 -10.22994 -10.21601
 Alpha  occ. eigenvalues --  -10.21523 -10.20906 -10.18806  -0.94974  -0.89355
 Alpha  occ. eigenvalues --   -0.85011  -0.76685  -0.68263  -0.64930  -0.60822
 Alpha  occ. eigenvalues --   -0.52271  -0.50926  -0.48578  -0.47247  -0.44258
 Alpha  occ. eigenvalues --   -0.43342  -0.42067  -0.40221  -0.38826  -0.37149
 Alpha  occ. eigenvalues --   -0.36416  -0.34856  -0.28083  -0.25678  -0.24064
 Alpha  occ. eigenvalues --   -0.20238
 Alpha virt. eigenvalues --    0.01090   0.07937   0.09819   0.12363   0.13189
 Alpha virt. eigenvalues --    0.14266   0.15270   0.16340   0.16695   0.17210
 Alpha virt. eigenvalues --    0.18379   0.19579   0.20627   0.21961   0.23311

 Mulliken charges:
               1
     1  N   -0.490684
     2  C   -0.113019
     3  N   -0.058479
     4  C   -0.180073
     5  C   -0.268731
     6  C    0.032100
     7  N   -0.179833
     8  C   -0.135087
     9  H    0.225630
    10  H    0.226649
    11  H    0.078159
    12  H    0.090127
    13  H    0.106709
    14  H    0.098956
    15  H    0.108866
    16  H    0.116835
    17  H    0.095571
    18  H    0.108991
    19  H    0.137314
 Sum of Mulliken charges =   0.00000

 Dipole moment (field-independent basis, Debye):
    X=             -0.5796    Y=              2.8233    Z=             -0.5291  Tot=              2.9303
 Quadrupole moment (field-independent basis, Debye-Ang):
   XX=            -43.8004   YY=            -52.8737   ZZ=            -47.5365
   XY=              0.9834   XZ=              1.4331   YZ=             -1.1701

  Exact polarizability:  83.475   4.953  70.682  -2.708  -2.689  63.121
 Approx polarizability: 109.702  10.868 108.595  -5.445  -7.024  97.248

                      1                      2                      3
                      A                      A                      A
 Frequencies --     96.9325               141.2635               158.5265
 Red. masses --      3.4008                 2.0631                 2.5040
 Frc consts  --      0.0188                 0.0243                 0.0371
 IR Inten    --      0.2393                 6.0909                 1.7218

                      4                      5                      6
                      A                      A                      A
 Frequencies --    273.4965               314.7207               376.5697
 Red. masses --      1.1934                 2.2403                 2.3230
 Frc consts  --      0.0526                 0.1307                 0.1941
 IR Inten    --     29.4163                 7.1516                 3.3104

                      7                      8                      9
                      A                      A                      A
 Frequencies --    425.2539               439.1201               555.2892
 Red. masses --      1.9623                 3.0778                 3.7773
 Frc consts  --      0.2091                 0.3497                 0.6862
 IR Inten    --      5.0938                 9.3580                 7.0010

                     10                     11                     12
                      A                      A                      A
 Frequencies --    568.5900               728.5329               783.0178
 Red. masses --      4.8059                 1.6830                 2.5571
 Frc consts  --      0.9154                 0.5263                 0.9237
 IR Inten    --     13.2998                 3.2098                32.6733

                     13                     14                     15
                      A                      A                      A
 Frequencies --    846.6334               854.7993               866.2019
 Red. masses --      1.4075                 1.7702                 2.4251
 Frc consts  --      0.5944                 0.7621                 1.0720
 IR Inten    --     73.6197                 5.5238                31.5609

                     16                     17                     18
                      A                      A                      A
 Frequencies --    915.0184               964.6365              1001.8596
 Red. masses --      2.7306                 1.9328                 2.5599
 Frc consts  --      1.3470                 1.0597                 1.5139
 IR Inten    --     19.4767                 8.2928                12.8767

                     19                     20                     21
                      A                      A                      A
 Frequencies --   1022.2180              1049.2442              1060.0026
 Red. masses --      2.2209                 1.9971                 2.2225
 Frc consts  --      1.3673                 1.2954                 1.4713
 IR Inten    --     32.6907                 9.0800                 5.7483

                     22                     23                     24
                      A                      A                      A
 Frequencies --   1092.2841              1148.0218              1180.1448
 Red. masses --      2.3362                 1.7934                 2.2035
 Frc consts  --      1.6422                 1.3926                 1.8081
 IR Inten    --     23.0638                41.4539                33.9384

                     25                     26                     27
                      A                      A                      A
 Frequencies --   1224.7119              1240.4796              1279.1065
 Red. masses --      1.3571                 1.2947                 1.3776
 Frc consts  --      1.1993                 1.1738                 1.3280
 IR Inten    --     11.5328                 6.7463                40.4895

                     28                     29                     30
                      A                      A                      A
 Frequencies --   1335.2685              1351.5109              1359.1367
 Red. masses --      1.5052                 1.3040                 1.2826
 Frc consts  --      1.5812                 1.4033                 1.3959
 IR Inten    --      6.2734                 8.2900                 5.4218

                     31                     32                     33
                      A                      A                      A
 Frequencies --   1383.3509              1394.7984              1410.3023
 Red. masses --      1.2696                 1.4321                 1.2697
 Frc consts  --      1.4315                 1.6416                 1.4879
 IR Inten    --      5.5331                33.2679                 7.1176

                     34                     35                     36
                      A                      A                      A
 Frequencies --   1452.4061              1465.5549              1478.6831
 Red. masses --      1.2813                 1.0911                 1.0801
 Frc consts  --      1.5925                 1.3807                 1.3914
 IR Inten    --     22.1635                 8.8048                 4.2171

                     37                     38                     39
                      A                      A                      A
 Frequencies --   1490.7768              1525.1446              1639.7698
 Red. masses --      1.1202                 1.0840                 1.1015
 Frc consts  --      1.4668                 1.4855                 1.7451
 IR Inten    --     10.4296                 0.2257                29.0992

                     40                     41                     42
                      A                      A                      A
 Frequencies --   1740.0574              2931.2994              2955.2308
 Red. masses --      8.1973                 1.0548                 1.1046
 Frc consts  --     14.6234                 5.3402                 5.6838
 IR Inten    --     46.9120                66.0722                64.0431

                     43                     44                     45
                      A                      A                      A
 Frequencies --   3009.6148              3011.1858              3021.6409
 Red. masses --      1.0711                 1.0657                 1.0635
 Frc consts  --      5.7161                 5.6935                 5.7208
 IR Inten    --     28.0432                21.6917                39.2511

                     46                     47                     48
                      A                      A                      A
 Frequencies --   3048.7876              3065.0164              3073.0650
 Red. masses --      1.0929                 1.0884                 1.1036
 Frc consts  --      5.9854                 6.0243                 6.1406
 IR Inten    --     33.9190                63.3094                35.0501

                     49                     50                     51
                      A                      A                      A
 Frequencies --   3105.5850              3498.6388              3588.2058
 Red. masses --      1.0913                 1.0487                 1.0933
 Frc consts  --      6.2014                 7.5633                 8.2936
 IR Inten    --      4.8955                 0.2385                 0.9402

 - Thermochemistry -
 -------------------
 Temperature   298.150 Kelvin.  Pressure   1.00000 Atm.
 Atom     1 has atomic number  7 and mass  14.00307

 Molecular mass:   113.09530 amu.
 Principal axes and moments of inertia in atomic units:
                           1         2         3
     Eigenvalues --   498.406851101.798061312.42272
           X            0.99974   0.02217   0.00477
           Y           -0.02203   0.99937  -0.02794
           Z           -0.00539   0.02783   0.99960
 This molecule is an asymmetric top.
 Rotational symmetry number  1.
 Warning -- assumption of classical behavior for rotation
           may cause significant error
 Rotational temperatures (Kelvin)      0.17378     0.07861     0.06600
 Rotational constants (GHZ):           3.62102     1.63800     1.37512
 Zero-point vibrational energy     442269.6 (Joules/Mol)
                                  105.70498 (Kcal/Mol)
 Warning -- explicit consideration of  10 degrees of freedom as
           vibrations may cause significant error
 Vibrational temperatures:    139.46   203.25   228.08   393.50   452.81
          (Kelvin)            541.80   611.85   631.80   798.94   818.07
                             1048.20  1126.59  1218.12  1229.87  1246.27
                             1316.51  1387.90  1441.45  1470.74  1509.63
                             1525.11  1571.55  1651.75  1697.97  1762.09
                             1784.77  1840.35  1921.15  1944.52  1955.49
                             1990.33  2006.80  2029.11  2089.69  2108.61
                             2127.50  2144.90  2194.34  2359.26  2503.55
                             4217.49  4251.92  4330.16  4332.42  4347.47
                             4386.53  4409.87  4421.46  4468.24  5033.76
                             5162.63

 Zero-point correction=                           0.168452 (Hartree/Particle)
 Thermal correction to Energy=                    0.176212
 Thermal correction to Enthalpy=                  0.177156
 Thermal correction to Gibbs Free Energy=         0.136412
 Sum of electronic and zero-point Energies=           -361.228352
 Sum of electronic and thermal Energies=              -361.220592
 Sum of electronic and thermal Enthalpies=            -361.219648
 Sum of electronic and thermal Free Energies=         -361.260391

                     E (Thermal)             CV                S
                      KCal/Mol        Cal/Mol-Kelvin    Cal/Mol-Kelvin
 Total                  110.574             29.498             85.752
 Electronic               0.000              0.000              0.000
 Translational            0.889              2.981             40.085
 Rotational               0.889              2.981             28.068
 Vibrational            108.797             23.537             17.599
 Vibration     1          0.603              1.951              3.515
 Vibration     2          0.615              1.912              2.787
 Vibration     3          0.621              1.893              2.567
 Vibration     4          0.676              1.722              1.574
 Vibration     5          0.702              1.646              1.337
 Vibration     6          0.747              1.520              1.053
 Vibration     7          0.787              1.415              0.874
 Vibration     8          0.799              1.385              0.829
 Vibration     9          0.911              1.128              0.533
 Vibration    10          0.925              1.099              0.507

 Optimization completed.
    -- Stationary point found.
 Normal termination of Gaussian 16 at Wed Jun  2 00:56:48 2021.
