 Gaussian 16, Revision A.03,
 Gaussian 16:  ES64L-G16RevA.03 25-Dec-2016

 -----------------------------
 # opt freq b3lyp/6-31g(2df,p)
 -----------------------------

 -------------------
 Title Card Required
 -------------------
 Symbolic Z-matrix:
 Charge =  0 Multiplicity = 1

 SCF Done:  E(RB3LYP) =  -473.217676198     A.U. after   12 cycles
 SCF Done:  E(RB3LYP) =  -473.229757306     A.U. after   11 cycles
 SCF Done:  E(RB3LYP) =  -473.235735866     A.U. after   11 cycles
 SCF Done:  E(RB3LYP) =  -473.241775301     A.U. after   12 cycles
 SCF Done:  E(RB3LYP) =  -473.243470803     A.U. after   10 cycles
 SCF Done:  E(RB3LYP) =  -473.244778577     A.U. after   11 cycles
 SCF Done:  E(RB3LYP) =  -473.245135044     A.U. after   10 cycles
 SCF Done:  E(RB3LYP) =  -473.245365872     A.U. after   10 cycles
 SCF Done:  E(RB3LYP) =  -473.245494839     A.U. after   10 cycles
 SCF Done:  E(RB3LYP) =  -473.245615640     A.U. after   10 cycles
 SCF Done:  E(RB3LYP) =  -473.250111125     A.U. after   10 cycles
 SCF Done:  E(RB3LYP) =  -473.250788194     A.U. after   10 cycles
 SCF Done:  E(RB3LYP) =  -473.251005452     A.U. after   10 cycles
 SCF Done:  E(RB3LYP) =  -473.251049660     A.U. after    9 cycles
 SCF Done:  E(RB3LYP) =  -473.251059495     A.U. after    8 cycles
 SCF Done:  E(RB3LYP) =  -473.251061299     A.U. after    7 cycles
 SCF Done:  E(RB3LYP) =  -473.251062785     A.U. after    7 cycles
 SCF Done:  E(RB3LYP) =  -473.251063122     A.U. after    7 cycles
 SCF Done:  E(RB3LYP) =  -473.251063238     A.U. after    6 cycles
 Optimization completed.
    -- Stationary point found.
 Normal termination of Gaussian 16 at Mon May 31 23:00:19 2021.

 ----------------------------------------------------------------------
 #N Geom=AllCheck Guess=TCheck SCRF=Check GenChk RB3LYP/6-31G(2df,p) Fr
 eq
 ----------------------------------------------------------------------

 Structure from the checkpoint file:  "NCN1CCNNCCN1.chk"
 -------------------
 Title Card Required
 -------------------
 Charge =  0 Multiplicity = 1

                         Standard orientation:
 ---------------------------------------------------------------------
 Center     Atomic      Atomic             Coordinates (Angstroms)
 Number     Number       Type             X           Y           Z
 ---------------------------------------------------------------------
      1          7           0       -3.169103    0.130379    0.333937
      2          6           0       -2.232431   -0.183869   -0.751251
      3          7           0       -0.840561   -0.001186   -0.368300
      4          6           0       -0.526297    1.398462   -0.065522
      5          6           0        0.885110    1.663166    0.468527
      6          7           0        1.966848    1.132332   -0.359795
      7          7           0        2.481940   -0.136178    0.018541
      8          6           0        1.730920   -1.265902   -0.523277
      9          6           0        0.580889   -1.822985    0.334394
     10          7           0       -0.520436   -0.919364    0.680152
     11          1           0       -3.123305   -0.619610    1.017740
     12          1           0       -4.120159    0.148539   -0.020925
     13          1           0       -2.440209    0.491709   -1.589033
     14          1           0       -2.323266   -1.215937   -1.119655
     15          1           0       -1.244674    1.817173    0.659766
     16          1           0       -0.649824    1.953833   -1.002391
     17          1           0        0.978683    1.306025    1.510545
     18          1           0        0.991886    2.754165    0.515588
     19          1           0        2.751601    1.771815   -0.351619
     20          1           0        2.542432   -0.209635    1.036914
     21          1           0        2.429497   -2.096807   -0.697943
     22          1           0        1.344231   -0.947094   -1.492266
     23          1           0        0.973267   -2.215211    1.282721
     24          1           0        0.169883   -2.689268   -0.204419
     25          1           0       -0.339998   -0.424810    1.546019
 ---------------------------------------------------------------------

 SCF Done:  E(RB3LYP) =  -473.251063238     A.U. after    1 cycles

 The electronic state is 1-A.
 Alpha  occ. eigenvalues --  -14.33172 -14.33125 -14.33087 -14.32754 -14.29900
 Alpha  occ. eigenvalues --  -10.21768 -10.20596 -10.19691 -10.19464 -10.18756
 Alpha  occ. eigenvalues --   -0.97367  -0.95212  -0.86710  -0.82467  -0.77856
 Alpha  occ. eigenvalues --   -0.72768  -0.67788  -0.61816  -0.60583  -0.56240
 Alpha  occ. eigenvalues --   -0.51222  -0.50389  -0.48596  -0.47414  -0.45402
 Alpha  occ. eigenvalues --   -0.44076  -0.43060  -0.42203  -0.40687  -0.39486
 Alpha  occ. eigenvalues --   -0.37387  -0.36648  -0.35662  -0.34387  -0.33092
 Alpha  occ. eigenvalues --   -0.25381  -0.23213  -0.22633  -0.22252  -0.19508
 Alpha virt. eigenvalues --    0.06800   0.09709   0.09844   0.10959   0.12218
 Alpha virt. eigenvalues --    0.13810   0.14973   0.15301   0.15994   0.16844
 Alpha virt. eigenvalues --    0.17403   0.17666   0.18601   0.19390   0.20126

 Mulliken charges:
               1
     1  N   -0.504976
     2  C   -0.101614
     3  N   -0.053831
     4  C   -0.106259
     5  C   -0.185738
     6  N   -0.256122
     7  N   -0.290930
     8  C   -0.104245
     9  C   -0.144875
    10  N   -0.287907
    11  H    0.228541
    12  H    0.222584
    13  H    0.097334
    14  H    0.086479
    15  H    0.097125
    16  H    0.103850
    17  H    0.069929
    18  H    0.100734
    19  H    0.228213
    20  H    0.190740
    21  H    0.086871
    22  H    0.125656
    23  H    0.086483
    24  H    0.097124
    25  H    0.214833
 Sum of Mulliken charges =  -0.00000

 Dipole moment (field-independent basis, Debye):
    X=             -0.6500    Y=              0.2133    Z=              1.3019  Tot=              1.4707
 Quadrupole moment (field-independent basis, Debye-Ang):
   XX=            -60.3290   YY=            -59.2176   ZZ=            -61.0040
   XY=              3.4571   XZ=              5.3452   YZ=             -0.3969

  Exact polarizability: 100.350  -2.996  95.612   1.997  -0.366  77.211
 Approx polarizability: 126.773  -4.449 133.126   2.484  -2.907 123.746

                      1                      2                      3
                      A                      A                      A
 Frequencies --     68.5807               115.1378               139.1833
 Red. masses --      3.3216                 2.9286                 2.3634
 Frc consts  --      0.0092                 0.0229                 0.0270
 IR Inten    --      1.2539                 3.6394                 3.0550

                      4                      5                      6
                      A                      A                      A
 Frequencies --    180.4004               223.0398               237.3453
 Red. masses --      2.4077                 2.7888                 1.7804
 Frc consts  --      0.0462                 0.0817                 0.0591
 IR Inten    --      0.6901                 6.2537                30.0405

                      7                      8                      9
                      A                      A                      A
 Frequencies --    272.1377               331.6376               344.4830
 Red. masses --      1.8524                 2.1646                 2.5777
 Frc consts  --      0.0808                 0.1403                 0.1802
 IR Inten    --     15.7405                10.5177                10.6176

                     10                     11                     12
                      A                      A                      A
 Frequencies --    421.7259               433.6022               470.1981
 Red. masses --      2.0411                 2.3533                 2.7790
 Frc consts  --      0.2139                 0.2607                 0.3620
 IR Inten    --      5.9249                11.6697                 0.9603

                     13                     14                     15
                      A                      A                      A
 Frequencies --    524.0232               563.9986               644.9296
 Red. masses --      1.8832                 2.2837                 2.4145
 Frc consts  --      0.3047                 0.4280                 0.5917
 IR Inten    --     16.2571                17.2497                 9.8490

                     16                     17                     18
                      A                      A                      A
 Frequencies --    665.9305               714.3899               785.0092
 Red. masses --      2.8870                 2.0250                 1.6157
 Frc consts  --      0.7543                 0.6089                 0.5866
 IR Inten    --     39.5267                99.4649                37.0705

                     19                     20                     21
                      A                      A                      A
 Frequencies --    809.9911               844.8754               878.7727
 Red. masses --      2.1797                 2.1431                 1.5088
 Frc consts  --      0.8426                 0.9013                 0.6865
 IR Inten    --     30.7899                15.7666               106.5237

                     22                     23                     24
                      A                      A                      A
 Frequencies --    893.6949               918.9510               935.0955
 Red. masses --      1.8392                 1.6965                 2.1794
 Frc consts  --      0.8655                 0.8441                 1.1228
 IR Inten    --     40.1831                16.8388                 2.9874

                     25                     26                     27
                      A                      A                      A
 Frequencies --    972.8741              1017.5833              1041.4690
 Red. masses --      1.8254                 2.8813                 1.9518
 Frc consts  --      1.0179                 1.7579                 1.2473
 IR Inten    --      3.4553                21.2364                 5.8369

                     28                     29                     30
                      A                      A                      A
 Frequencies --   1068.9843              1095.2553              1125.5977
 Red. masses --      2.8109                 2.1882                 2.3517
 Frc consts  --      1.8925                 1.5465                 1.7555
 IR Inten    --     27.7807                 7.0590                19.2740

                     31                     32                     33
                      A                      A                      A
 Frequencies --   1142.0057              1159.0592              1176.0459
 Red. masses --      2.0361                 4.0216                 3.0715
 Frc consts  --      1.5645                 3.1832                 2.5029
 IR Inten    --     26.9712                 7.5544                18.2027

                     34                     35                     36
                      A                      A                      A
 Frequencies --   1197.2927              1254.1503              1275.6547
 Red. masses --      2.8364                 1.2316                 1.6216
 Frc consts  --      2.3956                 1.1414                 1.5547
 IR Inten    --      4.0802                 6.7163                 4.9067

                     37                     38                     39
                      A                      A                      A
 Frequencies --   1292.6847              1312.2709              1321.9976
 Red. masses --      1.1962                 1.2126                 1.2143
 Frc consts  --      1.1777                 1.2303                 1.2504
 IR Inten    --      3.8206                 3.0095                 2.2834

                     40                     41                     42
                      A                      A                      A
 Frequencies --   1357.0037              1371.4460              1390.5576
 Red. masses --      1.1948                 1.3017                 1.3109
 Frc consts  --      1.2963                 1.4425                 1.4934
 IR Inten    --      5.1404                11.3756                 0.6616

                     43                     44                     45
                      A                      A                      A
 Frequencies --   1405.2797              1408.0411              1430.0451
 Red. masses --      1.3022                 1.3565                 1.2599
 Frc consts  --      1.5151                 1.5845                 1.5181
 IR Inten    --     35.1077                 7.9963                22.9396

                     46                     47                     48
                      A                      A                      A
 Frequencies --   1465.4785              1467.6699              1481.8320
 Red. masses --      1.0828                 1.0842                 1.1047
 Frc consts  --      1.3701                 1.3760                 1.4292
 IR Inten    --      5.6859                 6.8130                 1.0632

                     49                     50                     51
                      A                      A                      A
 Frequencies --   1492.2058              1496.1149              1498.3638
 Red. masses --      1.0975                 1.1229                 1.1097
 Frc consts  --      1.4398                 1.4809                 1.4678
 IR Inten    --      0.0368                 1.5448                 1.6392

                     52                     53                     54
                      A                      A                      A
 Frequencies --   1511.1901              1527.5142              1634.6838
 Red. masses --      1.1629                 1.2041                 1.0933
 Frc consts  --      1.5646                 1.6553                 1.7212
 IR Inten    --      1.8889                 1.2647                37.8997

                     55                     56                     57
                      A                      A                      A
 Frequencies --   2928.9239              2966.7393              2988.3856
 Red. masses --      1.0713                 1.0683                 1.0666
 Frc consts  --      5.4146                 5.5400                 5.6121
 IR Inten    --     49.2396                54.3439                40.2634

                     58                     59                     60
                      A                      A                      A
 Frequencies --   2991.2012              3008.8938              3035.7004
 Red. masses --      1.0655                 1.0716                 1.0988
 Frc consts  --      5.6171                 5.7158                 5.9663
 IR Inten    --     31.9679               122.1251                31.3078

                     61                     62                     63
                      A                      A                      A
 Frequencies --   3042.7590              3054.4939              3063.4401
 Red. masses --      1.0886                 1.0930                 1.0944
 Frc consts  --      5.9384                 6.0083                 6.0512
 IR Inten    --     23.1789                13.2038                63.7608

                     64                     65                     66
                      A                      A                      A
 Frequencies --   3127.3521              3378.4174              3492.4867
 Red. masses --      1.0900                 1.0724                 1.0488
 Frc consts  --      6.2812                 7.2114                 7.5374
 IR Inten    --      7.5948                19.0516                 1.0599

                     67                     68                     69
                      A                      A                      A
 Frequencies --   3523.0938              3536.5787              3574.2750
 Red. masses --      1.0748                 1.0757                 1.0922
 Frc consts  --      7.8599                 7.9270                 8.2214
 IR Inten    --      1.3245                 0.8061                 0.7237

 - Thermochemistry -
 -------------------
 Temperature   298.150 Kelvin.  Pressure   1.00000 Atm.
 Atom     1 has atomic number  7 and mass  14.00307

 Molecular mass:   145.13275 amu.
 Principal axes and moments of inertia in atomic units:
                           1         2         3
     Eigenvalues --   817.154041840.309432352.45509
           X            0.99995  -0.00386   0.00886
           Y            0.00376   0.99993   0.01148
           Z           -0.00890  -0.01145   0.99989
 This molecule is an asymmetric top.
 Rotational symmetry number  1.
 Warning -- assumption of classical behavior for rotation
           may cause significant error
 Rotational temperatures (Kelvin)      0.10599     0.04706     0.03682
 Rotational constants (GHZ):           2.20857     0.98067     0.76717
 Zero-point vibrational energy     595263.1 (Joules/Mol)
                                  142.27131 (Kcal/Mol)
 Warning -- explicit consideration of  14 degrees of freedom as
           vibrations may cause significant error
 Vibrational temperatures:     98.67   165.66   200.25   259.56   320.90
          (Kelvin)            341.49   391.55   477.15   495.63   606.77
                              623.86   676.51   753.95   811.47   927.91
                              958.13  1027.85  1129.45  1165.40  1215.59
                             1264.36  1285.83  1322.17  1345.39  1399.75
                             1464.08  1498.44  1538.03  1575.83  1619.48
                             1643.09  1667.63  1692.07  1722.64  1804.44
                             1835.38  1859.88  1888.07  1902.06  1952.43
                             1973.20  2000.70  2021.88  2025.86  2057.52
                             2108.50  2111.65  2132.03  2146.95  2152.58
                             2155.81  2174.27  2197.75  2351.95  4214.07
                             4268.48  4299.62  4303.67  4329.13  4367.70
                             4377.85  4394.74  4407.61  4499.56  4860.79
                             5024.91  5068.95  5088.35  5142.58

 Zero-point correction=                           0.226724 (Hartree/Particle)
 Thermal correction to Energy=                    0.236965
 Thermal correction to Enthalpy=                  0.237909
 Thermal correction to Gibbs Free Energy=         0.191572
 Sum of electronic and zero-point Energies=           -473.024339
 Sum of electronic and thermal Energies=              -473.014099
 Sum of electronic and thermal Enthalpies=            -473.013154
 Sum of electronic and thermal Free Energies=         -473.059491

                     E (Thermal)             CV                S
                      KCal/Mol        Cal/Mol-Kelvin    Cal/Mol-Kelvin
 Total                  148.698             40.033             97.524
 Electronic               0.000              0.000              0.000
 Translational            0.889              2.981             40.828
 Rotational               0.889              2.981             29.649
 Vibrational            146.920             34.071             27.047
 Vibration     1          0.598              1.969              4.194
 Vibration     2          0.608              1.937              3.180
 Vibration     3          0.615              1.914              2.815
 Vibration     4          0.629              1.866              2.324
 Vibration     5          0.649              1.806              1.934
 Vibration     6          0.656              1.784              1.823
 Vibration     7          0.675              1.725              1.583
 Vibration     8          0.714              1.612              1.252
 Vibration     9          0.723              1.586              1.191
 Vibration    10          0.784              1.423              0.886
 Vibration    11          0.794              1.397              0.847
 Vibration    12          0.827              1.316              0.737
 Vibration    13          0.879              1.197              0.601
 Vibration    14          0.920              1.109              0.516

                           ! Non-Optimized Parameters !
 Normal termination of Gaussian 16 at Tue Jun  1 00:21:01 2021.
