 Gaussian 16, Revision A.03,
 Gaussian 16:  ES64L-G16RevA.03 25-Dec-2016

 -----------------------------
 # opt freq b3lyp/6-31g(2df,p)
 -----------------------------

 -------------------
 Title Card Required
 -------------------
 Symbolic Z-matrix:
 Charge =  0 Multiplicity = 1

 SCF Done:  E(RB3LYP) =  -493.882229737     A.U. after   13 cycles
 SCF Done:  E(RB3LYP) =  -493.889428842     A.U. after   13 cycles
 SCF Done:  E(RB3LYP) =  -493.890692617     A.U. after   11 cycles
 SCF Done:  E(RB3LYP) =  -493.891850811     A.U. after   12 cycles
 SCF Done:  E(RB3LYP) =  -493.892917563     A.U. after   13 cycles
 SCF Done:  E(RB3LYP) =  -493.894377393     A.U. after   13 cycles
 SCF Done:  E(RB3LYP) =  -493.894863020     A.U. after   13 cycles
 SCF Done:  E(RB3LYP) =  -493.895280279     A.U. after   13 cycles
 SCF Done:  E(RB3LYP) =  -493.895418513     A.U. after   13 cycles
 SCF Done:  E(RB3LYP) =  -493.895459398     A.U. after   12 cycles
 SCF Done:  E(RB3LYP) =  -493.895500786     A.U. after   11 cycles
 SCF Done:  E(RB3LYP) =  -493.895506981     A.U. after   10 cycles
 SCF Done:  E(RB3LYP) =  -493.895510292     A.U. after    9 cycles
 SCF Done:  E(RB3LYP) =  -493.895511929     A.U. after    9 cycles
 SCF Done:  E(RB3LYP) =  -493.895513275     A.U. after    9 cycles
 SCF Done:  E(RB3LYP) =  -493.895513545     A.U. after    7 cycles
 SCF Done:  E(RB3LYP) =  -493.895513605     A.U. after    7 cycles
 SCF Done:  E(RB3LYP) =  -493.895513661     A.U. after    7 cycles
 Optimization completed.
    -- Stationary point found.
 Normal termination of Gaussian 16 at Mon May 31 13:08:13 2021.

 ----------------------------------------------------------------------
 #N Geom=AllCheck Guess=TCheck SCRF=Check GenChk RB3LYP/6-31G(2df,p) Fr
 eq
 ----------------------------------------------------------------------

 Structure from the checkpoint file:  "NCNdNCNCpNpF.chk"
 -------------------
 Title Card Required
 -------------------
 Charge =  0 Multiplicity = 1

                         Standard orientation:
 ---------------------------------------------------------------------
 Center     Atomic      Atomic             Coordinates (Angstroms)
 Number     Number       Type             X           Y           Z
 ---------------------------------------------------------------------
      1          7           0        4.027649    0.483596   -0.799344
      2          6           0        3.297435   -0.405570    0.088091
      3          7           0        2.006469    0.230590    0.401462
      4          7           0        1.058567   -0.560518    0.361697
      5          6           0       -0.220453    0.062200    0.731420
      6          7           0       -1.229129   -0.419111   -0.195621
      7          6           0       -2.579147   -0.020779    0.141706
      8          7           0       -2.846697    1.340826   -0.163517
      9          9           0       -3.390927   -0.852185   -0.606034
     10          1           0        4.880988    0.032065   -1.110337
     11          1           0        4.297646    1.326630   -0.302038
     12          1           0        3.775986   -0.583576    1.068462
     13          1           0        3.142365   -1.374253   -0.399790
     14          1           0       -0.152307    1.154739    0.697154
     15          1           0       -0.411709   -0.239208    1.780759
     16          1           0       -1.182922   -1.432439   -0.248075
     17          1           0       -2.846119   -0.200903    1.199516
     18          1           0       -2.221962    1.698575   -0.875509
     19          1           0       -2.868639    1.945246    0.644127
 ---------------------------------------------------------------------

 SCF Done:  E(RB3LYP) =  -493.895513661     A.U. after    1 cycles

 The electronic state is 1-A.
 Alpha  occ. eigenvalues --  -24.65936 -14.38140 -14.37961 -14.32369 -14.31933
 Alpha  occ. eigenvalues --  -14.31837 -10.30555 -10.23937 -10.23688  -1.18170
 Alpha  occ. eigenvalues --   -1.04049  -0.93344  -0.89294  -0.86950  -0.75963
 Alpha  occ. eigenvalues --   -0.67019  -0.62562  -0.57802  -0.54100  -0.52396
 Alpha  occ. eigenvalues --   -0.50565  -0.48536  -0.47633  -0.46519  -0.45751
 Alpha  occ. eigenvalues --   -0.44032  -0.42951  -0.40594  -0.36257  -0.36006
 Alpha  occ. eigenvalues --   -0.35099  -0.33659  -0.26461  -0.25081  -0.24504
 Alpha  occ. eigenvalues --   -0.22809
 Alpha virt. eigenvalues --   -0.04133   0.07644   0.08469   0.11214   0.12483
 Alpha virt. eigenvalues --    0.12653   0.13670   0.14057   0.15146   0.17201
 Alpha virt. eigenvalues --    0.18032   0.18507   0.19242   0.21635   0.22757

 Mulliken charges:
               1
     1  N   -0.498032
     2  C   -0.072206
     3  N   -0.099751
     4  N   -0.131237
     5  C   -0.060350
     6  N   -0.308820
     7  C    0.149000
     8  N   -0.494497
     9  F   -0.147926
    10  H    0.234705
    11  H    0.234453
    12  H    0.098061
    13  H    0.116970
    14  H    0.109882
    15  H    0.094653
    16  H    0.233097
    17  H    0.055957
    18  H    0.243605
    19  H    0.242437
 Sum of Mulliken charges =  -0.00000

 Dipole moment (field-independent basis, Debye):
    X=              2.9872    Y=              0.6882    Z=              2.6174  Tot=              4.0308
 Quadrupole moment (field-independent basis, Debye-Ang):
   XX=            -49.6870   YY=            -50.1671   ZZ=            -53.9535
   XY=             -3.5509   XZ=             -4.0848   YZ=              0.9785

  Exact polarizability: 100.088   0.481  64.954  -4.935   0.671  57.900
 Approx polarizability: 116.528   6.350  98.172  -4.656   2.575  86.717

                      1                      2                      3
                      A                      A                      A
 Frequencies --     28.2279                36.1675               106.1016
 Red. masses --      4.2712                 4.1191                 4.7920
 Frc consts  --      0.0020                 0.0032                 0.0318
 IR Inten    --      0.1739                 0.2123                 2.7767

                      4                      5                      6
                      A                      A                      A
 Frequencies --    107.9033               144.6222               170.7764
 Red. masses --      2.9422                 1.7283                 1.9041
 Frc consts  --      0.0202                 0.0213                 0.0327
 IR Inten    --      2.2005                21.3258                13.4648

                      7                      8                      9
                      A                      A                      A
 Frequencies --    212.3103               223.5880               269.2957
 Red. masses --      1.4088                 2.5604                 2.4969
 Frc consts  --      0.0374                 0.0754                 0.1067
 IR Inten    --     51.3708                 0.7497                 6.5450

                     10                     11                     12
                      A                      A                      A
 Frequencies --    337.2644               470.3980               495.8281
 Red. masses --      6.3713                 2.5079                 4.6790
 Frc consts  --      0.4270                 0.3270                 0.6778
 IR Inten    --      1.6966                60.5834                 1.1134

                     13                     14                     15
                      A                      A                      A
 Frequencies --    540.2230               597.5681               622.5866
 Red. masses --      4.1511                 2.5443                 3.2507
 Frc consts  --      0.7138                 0.5353                 0.7424
 IR Inten    --      1.3554                24.6271                13.3126

                     16                     17                     18
                      A                      A                      A
 Frequencies --    655.6247               820.0130               832.3542
 Red. masses --      1.6399                 1.3047                 1.2954
 Frc consts  --      0.4153                 0.5169                 0.5288
 IR Inten    --    180.8570               144.1792                96.5589

                     19                     20                     21
                      A                      A                      A
 Frequencies --    962.3564               966.5673               991.4658
 Red. masses --      2.8861                 3.7535                 1.8662
 Frc consts  --      1.5748                 2.0661                 1.0808
 IR Inten    --      5.6383                12.1485                 1.2855

                     22                     23                     24
                      A                      A                      A
 Frequencies --   1021.4672              1064.6603              1082.9315
 Red. masses --      1.9396                 3.7089                 2.2090
 Frc consts  --      1.1924                 2.4770                 1.5263
 IR Inten    --     28.7964               136.4137                20.2673

                     25                     26                     27
                      A                      A                      A
 Frequencies --   1104.8545              1168.9455              1198.0082
 Red. masses --      2.5354                 3.7946                 1.9162
 Frc consts  --      1.8235                 3.0550                 1.6204
 IR Inten    --      5.9501               121.5354                51.5902

                     28                     29                     30
                      A                      A                      A
 Frequencies --   1212.4872              1242.9258              1258.3805
 Red. masses --      1.2382                 1.5349                 1.6661
 Frc consts  --      1.0725                 1.3971                 1.5545
 IR Inten    --     30.6398                 0.6462                19.2988

                     31                     32                     33
                      A                      A                      A
 Frequencies --   1312.0257              1341.3872              1386.2372
 Red. masses --      1.3082                 1.1946                 1.3462
 Frc consts  --      1.3268                 1.2664                 1.5242
 IR Inten    --     23.0934                44.2057                 5.8860

                     34                     35                     36
                      A                      A                      A
 Frequencies --   1415.9547              1432.5801              1485.7445
 Red. masses --      1.3643                 1.3031                 1.3200
 Frc consts  --      1.6116                 1.5757                 1.7168
 IR Inten    --     47.6257                81.9604                47.6376

                     37                     38                     39
                      A                      A                      A
 Frequencies --   1494.6943              1508.1050              1645.8499
 Red. masses --      1.0890                 1.1124                 1.1157
 Frc consts  --      1.4335                 1.4906                 1.7806
 IR Inten    --      1.8787                 8.0354                47.8479

                     40                     41                     42
                      A                      A                      A
 Frequencies --   1646.1733              1682.6286              2903.3183
 Red. masses --      1.1068                12.0792                 1.0699
 Frc consts  --      1.7671                20.1495                 5.3133
 IR Inten    --     17.0275                 0.3312                51.1746

                     43                     44                     45
                      A                      A                      A
 Frequencies --   2932.7867              2936.1232              3061.8829
 Red. masses --      1.0687                 1.0824                 1.0889
 Frc consts  --      5.4161                 5.4979                 6.0149
 IR Inten    --     54.7778               109.7160                33.2118

                     46                     47                     48
                      A                      A                      A
 Frequencies --   3063.7615              3504.6164              3526.0102
 Red. masses --      1.0912                 1.0494                 1.0732
 Frc consts  --      6.0349                 7.5940                 7.8613
 IR Inten    --     10.8167                 0.7297                 4.1811

                     49                     50                     51
                      A                      A                      A
 Frequencies --   3548.2075              3590.0590              3658.4927
 Red. masses --      1.0492                 1.0924                 1.0952
 Frc consts  --      7.7823                 8.2952                 8.6371
 IR Inten    --      6.0240                 2.2326                12.7464

 - Thermochemistry -
 -------------------
 Temperature   298.150 Kelvin.  Pressure   1.00000 Atm.
 Atom     1 has atomic number  7 and mass  14.00307

 Molecular mass:   135.09202 amu.
 Principal axes and moments of inertia in atomic units:
                           1         2         3
     Eigenvalues --   365.949773532.594603637.62477
           X            0.99988  -0.01196  -0.01022
           Y            0.01176   0.99973  -0.01982
           Z            0.01045   0.01970   0.99975
 This molecule is an asymmetric top.
 Rotational symmetry number  1.
 Rotational temperatures (Kelvin)      0.23668     0.02452     0.02381
 Rotational constants (GHZ):           4.93166     0.51088     0.49613
 Zero-point vibrational energy     412846.5 (Joules/Mol)
                                   98.67268 (Kcal/Mol)
 Warning -- explicit consideration of  14 degrees of freedom as
           vibrations may cause significant error
 Vibrational temperatures:     40.61    52.04   152.66   155.25   208.08
          (Kelvin)            245.71   305.47   321.69   387.46   485.25
                              676.80   713.39   777.26   859.77   895.76
                              943.30  1179.82  1197.57  1384.62  1390.67
                             1426.50  1469.66  1531.81  1558.10  1589.64
                             1681.85  1723.67  1744.50  1788.29  1810.53
                             1887.71  1929.96  1994.49  2037.24  2061.16
                             2137.65  2150.53  2169.83  2368.01  2368.48
                             2420.93  4177.23  4219.63  4224.43  4405.37
                             4408.07  5042.36  5073.14  5105.08  5165.29
                             5263.75

 Zero-point correction=                           0.157245 (Hartree/Particle)
 Thermal correction to Energy=                    0.168061
 Thermal correction to Enthalpy=                  0.169006
 Thermal correction to Gibbs Free Energy=         0.119083
 Sum of electronic and zero-point Energies=           -493.738269
 Sum of electronic and thermal Energies=              -493.727452
 Sum of electronic and thermal Enthalpies=            -493.726508
 Sum of electronic and thermal Free Energies=         -493.776430

                     E (Thermal)             CV                S
                      KCal/Mol        Cal/Mol-Kelvin    Cal/Mol-Kelvin
 Total                  105.460             36.822            105.070
 Electronic               0.000              0.000              0.000
 Translational            0.889              2.981             40.615
 Rotational               0.889              2.981             29.932
 Vibrational            103.683             30.860             34.524
 Vibration     1          0.593              1.984              5.950
 Vibration     2          0.594              1.982              5.459
 Vibration     3          0.605              1.944              3.339
 Vibration     4          0.606              1.943              3.306
 Vibration     5          0.616              1.908              2.742
 Vibration     6          0.626              1.878              2.427
 Vibration     7          0.643              1.822              2.024
 Vibration     8          0.649              1.805              1.930
 Vibration     9          0.674              1.730              1.601
 Vibration    10          0.718              1.601              1.225
 Vibration    11          0.827              1.316              0.736
 Vibration    12          0.851              1.259              0.669
 Vibration    13          0.895              1.161              0.565
 Vibration    14          0.955              1.037              0.454

                           ! Non-Optimized Parameters !
 Normal termination of Gaussian 16 at Mon May 31 13:37:08 2021.
