 Gaussian 16, Revision A.03,
 Gaussian 16:  ES64L-G16RevA.03 25-Dec-2016

 -----------------------------
 # opt freq b3lyp/6-31g(2df,p)
 -----------------------------

 -------------------
 Title Card Required
 -------------------
 Symbolic Z-matrix:
 Charge =  0 Multiplicity = 1

 SCF Done:  E(RB3LYP) =  -417.939227261     A.U. after   13 cycles
 SCF Done:  E(RB3LYP) =  -417.947471136     A.U. after   12 cycles
 SCF Done:  E(RB3LYP) =  -417.950319741     A.U. after   12 cycles
 SCF Done:  E(RB3LYP) =  -417.953998998     A.U. after   14 cycles
 SCF Done:  E(RB3LYP) =  -417.956027371     A.U. after   13 cycles
 SCF Done:  E(RB3LYP) =  -417.956711746     A.U. after   12 cycles
 SCF Done:  E(RB3LYP) =  -417.956884373     A.U. after   11 cycles
 SCF Done:  E(RB3LYP) =  -417.956955753     A.U. after    9 cycles
 SCF Done:  E(RB3LYP) =  -417.956980965     A.U. after    9 cycles
 SCF Done:  E(RB3LYP) =  -417.956986987     A.U. after    8 cycles
 SCF Done:  E(RB3LYP) =  -417.956989539     A.U. after    8 cycles
 SCF Done:  E(RB3LYP) =  -417.956990170     A.U. after    8 cycles
 SCF Done:  E(RB3LYP) =  -417.956990335     A.U. after    7 cycles
 SCF Done:  E(RB3LYP) =  -417.956990450     A.U. after    7 cycles
 SCF Done:  E(RB3LYP) =  -417.956990481     A.U. after    6 cycles
 Optimization completed.
    -- Stationary point found.
 Normal termination of Gaussian 16 at Tue Jun  1 01:51:18 2021.

 ----------------------------------------------------------------------
 #N Geom=AllCheck Guess=TCheck SCRF=Check GenChk RB3LYP/6-31G(2df,p) Fr
 eq
 ----------------------------------------------------------------------

 Structure from the checkpoint file:  "NCNdCCpCNpCN.chk"
 -------------------
 Title Card Required
 -------------------
 Charge =  0 Multiplicity = 1

                         Standard orientation:
 ---------------------------------------------------------------------
 Center     Atomic      Atomic             Coordinates (Angstroms)
 Number     Number       Type             X           Y           Z
 ---------------------------------------------------------------------
      1          7           0       -3.720135    0.085906   -0.469180
      2          6           0       -2.743564   -0.529084    0.428896
      3          7           0       -1.447509   -0.511335   -0.220665
      4          6           0       -0.468127   -0.012668    0.404649
      5          6           0        0.930188   -0.015033   -0.162931
      6          6           0        1.697328    1.242412    0.260458
      7          7           0        0.944175    2.442626   -0.122436
      8          6           0        1.657976   -1.310063    0.256591
      9          7           0        2.991528   -1.389507   -0.350236
     10          1           0       -4.653020   -0.027137   -0.082498
     11          1           0       -3.704742   -0.419791   -1.350901
     12          1           0       -2.962934   -1.586388    0.666356
     13          1           0       -2.749651    0.030310    1.379928
     14          1           0       -0.575060    0.416925    1.414526
     15          1           0        0.831137   -0.031736   -1.257387
     16          1           0        2.716897    1.185451   -0.143565
     17          1           0        1.792926    1.245697    1.355459
     18          1           0        0.852390    2.481437   -1.134003
     19          1           0        1.459341    3.275598    0.145872
     20          1           0        1.003098   -2.160363    0.009583
     21          1           0        1.786830   -1.314523    1.346964
     22          1           0        2.898890   -1.542955   -1.350933
     23          1           0        3.484680   -2.199739    0.012231
 ---------------------------------------------------------------------

 SCF Done:  E(RB3LYP) =  -417.956990481     A.U. after    1 cycles

 The electronic state is 1-A.
 Alpha  occ. eigenvalues --  -14.30991 -14.30799 -14.30194 -14.29762 -10.22074
 Alpha  occ. eigenvalues --  -10.21251 -10.20661 -10.19586 -10.18286  -0.92074
 Alpha  occ. eigenvalues --   -0.88396  -0.86873  -0.84986  -0.75808  -0.65714
 Alpha  occ. eigenvalues --   -0.64389  -0.58552  -0.55262  -0.49720  -0.48405
 Alpha  occ. eigenvalues --   -0.47549  -0.45569  -0.45170  -0.43055  -0.42423
 Alpha  occ. eigenvalues --   -0.41913  -0.39154  -0.37501  -0.35686  -0.34519
 Alpha  occ. eigenvalues --   -0.32980  -0.28519  -0.24787  -0.23902  -0.22715
 Alpha  occ. eigenvalues --   -0.22275
 Alpha virt. eigenvalues --    0.01006   0.08199   0.09219   0.10356   0.11061
 Alpha virt. eigenvalues --    0.13248   0.14341   0.15420   0.15939   0.16953
 Alpha virt. eigenvalues --    0.17743   0.18381   0.18986   0.19253   0.19992

 Mulliken charges:
               1
     1  N   -0.496109
     2  C   -0.093895
     3  N   -0.164746
     4  C    0.054531
     5  C   -0.028602
     6  C   -0.156453
     7  N   -0.508193
     8  C   -0.170405
     9  N   -0.509224
    10  H    0.221509
    11  H    0.227328
    12  H    0.082570
    13  H    0.086728
    14  H    0.080187
    15  H    0.078425
    16  H    0.103614
    17  H    0.093510
    18  H    0.225443
    19  H    0.225326
    20  H    0.095853
    21  H    0.099347
    22  H    0.225652
    23  H    0.227604
 Sum of Mulliken charges =  -0.00000

 Dipole moment (field-independent basis, Debye):
    X=              0.9925    Y=             -1.5033    Z=              0.2338  Tot=              1.8165
 Quadrupole moment (field-independent basis, Debye-Ang):
   XX=            -51.5454   YY=            -52.3367   ZZ=            -52.6227
   XY=              3.2807   XZ=             -2.6116   YZ=             -0.2925

  Exact polarizability: 108.273   1.392  79.438   1.712   1.507  73.781
 Approx polarizability: 132.016   4.742 107.658   6.636   5.229 116.558

                      1                      2                      3
                      A                      A                      A
 Frequencies --     33.0939                80.4539                88.9735
 Red. masses --      3.2951                 2.9178                 2.7461
 Frc consts  --      0.0021                 0.0111                 0.0128
 IR Inten    --      1.0445                 0.6267                 0.6775

                      4                      5                      6
                      A                      A                      A
 Frequencies --    113.3572               128.7822               168.6910
 Red. masses --      3.7788                 2.5255                 1.4794
 Frc consts  --      0.0286                 0.0247                 0.0248
 IR Inten    --     14.1833                 0.5549                31.0023

                      7                      8                      9
                      A                      A                      A
 Frequencies --    198.4014               210.8358               247.1574
 Red. masses --      2.2982                 1.1795                 1.1788
 Frc consts  --      0.0533                 0.0309                 0.0424
 IR Inten    --      4.1419                45.8258                21.0815

                     10                     11                     12
                      A                      A                      A
 Frequencies --    264.0649               313.5656               358.4255
 Red. masses --      1.5928                 2.7773                 3.3157
 Frc consts  --      0.0654                 0.1609                 0.2510
 IR Inten    --     20.2728                13.5824                 7.8628

                     13                     14                     15
                      A                      A                      A
 Frequencies --    426.1011               500.7732               547.3737
 Red. masses --      2.5333                 3.2124                 3.6361
 Frc consts  --      0.2710                 0.4746                 0.6419
 IR Inten    --     13.2173                 6.1585                 3.6432

                     16                     17                     18
                      A                      A                      A
 Frequencies --    563.5587               827.0315               847.0499
 Red. masses --      2.9842                 1.4189                 1.2223
 Frc consts  --      0.5584                 0.5718                 0.5167
 IR Inten    --     13.4903                34.0985               137.8142

                     19                     20                     21
                      A                      A                      A
 Frequencies --    866.2335               898.3869               930.7304
 Red. masses --      1.2500                 1.9190                 1.8093
 Frc consts  --      0.5526                 0.9125                 0.9234
 IR Inten    --    112.9114                33.8654                24.9899

                     22                     23                     24
                      A                      A                      A
 Frequencies --    954.8753               978.8399              1012.9539
 Red. masses --      1.7445                 2.3147                 1.6174
 Frc consts  --      0.9372                 1.3067                 0.9778
 IR Inten    --     12.2006                25.3606                10.5940

                     25                     26                     27
                      A                      A                      A
 Frequencies --   1054.1933              1075.4724              1085.4490
 Red. masses --      1.6124                 2.8113                 2.7266
 Frc consts  --      1.0557                 1.9158                 1.8927
 IR Inten    --      8.1243                 3.7244                 5.8226

                     28                     29                     30
                      A                      A                      A
 Frequencies --   1086.9975              1108.2114              1139.6592
 Red. masses --      2.0150                 2.0091                 2.0161
 Frc consts  --      1.4027                 1.4538                 1.5428
 IR Inten    --     29.5134                29.8889                14.4071

                     31                     32                     33
                      A                      A                      A
 Frequencies --   1168.5197              1213.1922              1239.3545
 Red. masses --      1.5728                 1.3427                 1.4151
 Frc consts  --      1.2653                 1.1643                 1.2806
 IR Inten    --      3.1194                 0.1863                 9.5641

                     34                     35                     36
                      A                      A                      A
 Frequencies --   1289.9683              1305.2701              1318.5123
 Red. masses --      1.2864                 1.2297                 1.1697
 Frc consts  --      1.2612                 1.2344                 1.1981
 IR Inten    --      2.1321                11.0535                 4.2093

                     37                     38                     39
                      A                      A                      A
 Frequencies --   1339.2368              1350.1486              1398.9496
 Red. masses --      1.3606                 1.2282                 1.3739
 Frc consts  --      1.4378                 1.3191                 1.5841
 IR Inten    --      0.5064                 4.3106                13.9622

                     40                     41                     42
                      A                      A                      A
 Frequencies --   1412.0542              1428.9788              1441.8425
 Red. masses --      1.4118                 1.4099                 1.3765
 Frc consts  --      1.6585                 1.6963                 1.6860
 IR Inten    --     13.0253                 8.6761                63.2107

                     43                     44                     45
                      A                      A                      A
 Frequencies --   1510.5395              1514.3891              1519.9232
 Red. masses --      1.0865                 1.0946                 1.0852
 Frc consts  --      1.4607                 1.4790                 1.4771
 IR Inten    --      2.3344                 2.2047                 1.6445

                     46                     47                     48
                      A                      A                      A
 Frequencies --   1637.4704              1656.6564              1657.5142
 Red. masses --      1.0937                 1.0881                 1.0879
 Frc consts  --      1.7278                 1.7595                 1.7610
 IR Inten    --     32.1475                21.1328                24.5115

                     49                     50                     51
                      A                      A                      A
 Frequencies --   1761.7388              2919.7212              2963.9720
 Red. masses --      9.0451                 1.0623                 1.0972
 Frc consts  --     16.5405                 5.3354                 5.6790
 IR Inten    --     93.8427                83.6998                42.5844

                     52                     53                     54
                      A                      A                      A
 Frequencies --   2973.0721              2978.6170              3002.4831
 Red. masses --      1.0680                 1.0834                 1.0583
 Frc consts  --      5.5618                 5.6634                 5.6212
 IR Inten    --     59.3797                52.7781                34.4339

                     55                     56                     57
                      A                      A                      A
 Frequencies --   3009.8880              3034.0516              3044.4198
 Red. masses --      1.0817                 1.1017                 1.0964
 Frc consts  --      5.7736                 5.9751                 5.9874
 IR Inten    --      8.9633                18.3518                76.8827

                     58                     59                     60
                      A                      A                      A
 Frequencies --   3483.2138              3485.0291              3485.4604
 Red. masses --      1.0489                 1.0497                 1.0494
 Frc consts  --      7.4981                 7.5114                 7.5113
 IR Inten    --      0.6413                 0.4153                 0.5257

                     61                     62                     63
                      A                      A                      A
 Frequencies --   3563.7613              3564.4916              3567.6565
 Red. masses --      1.0918                 1.0920                 1.0920
 Frc consts  --      8.1697                 8.1750                 8.1889
 IR Inten    --      0.1889                 0.1234                 0.2778

 - Thermochemistry -
 -------------------
 Temperature   298.150 Kelvin.  Pressure   1.00000 Atm.
 Atom     1 has atomic number  7 and mass  14.00307

 Molecular mass:   130.12185 amu.
 Principal axes and moments of inertia in atomic units:
                           1         2         3
     Eigenvalues --   785.219282320.858332917.17261
           X            0.99998   0.00396  -0.00399
           Y           -0.00397   0.99999  -0.00226
           Z            0.00398   0.00228   0.99999
 This molecule is an asymmetric top.
 Rotational symmetry number  1.
 Warning -- assumption of classical behavior for rotation
           may cause significant error
 Rotational temperatures (Kelvin)      0.11031     0.03732     0.02969
 Rotational constants (GHZ):           2.29839     0.77762     0.61866
 Zero-point vibrational energy     540411.8 (Joules/Mol)
                                  129.16151 (Kcal/Mol)
 Warning -- explicit consideration of  16 degrees of freedom as
           vibrations may cause significant error
 Vibrational temperatures:     47.61   115.76   128.01   163.10   185.29
          (Kelvin)            242.71   285.46   303.35   355.60   379.93
                              451.15   515.69   613.06   720.50   787.55
                              810.84  1189.91  1218.72  1246.32  1292.58
                             1339.11  1373.85  1408.33  1457.41  1516.75
                             1547.36  1561.72  1563.95  1594.47  1639.72
                             1681.24  1745.51  1783.15  1855.98  1877.99
                             1897.05  1926.86  1942.56  2012.78  2031.63
                             2055.98  2074.49  2173.33  2178.87  2186.83
                             2355.95  2383.56  2384.79  2534.75  4200.83
                             4264.49  4277.59  4285.57  4319.90  4330.56
                             4365.32  4380.24  5011.57  5014.18  5014.80
                             5127.46  5128.51  5133.06

 Zero-point correction=                           0.205832 (Hartree/Particle)
 Thermal correction to Energy=                    0.217493
 Thermal correction to Enthalpy=                  0.218437
 Thermal correction to Gibbs Free Energy=         0.167666
 Sum of electronic and zero-point Energies=           -417.751159
 Sum of electronic and thermal Energies=              -417.739497
 Sum of electronic and thermal Enthalpies=            -417.738553
 Sum of electronic and thermal Free Energies=         -417.789325

                     E (Thermal)             CV                S
                      KCal/Mol        Cal/Mol-Kelvin    Cal/Mol-Kelvin
 Total                  136.479             40.585            106.858
 Electronic               0.000              0.000              0.000
 Translational            0.889              2.981             40.503
 Rotational               0.889              2.981             30.054
 Vibrational            134.702             34.624             36.301
 Vibration     1          0.594              1.983              5.635
 Vibration     2          0.600              1.962              3.880
 Vibration     3          0.602              1.957              3.683
 Vibration     4          0.607              1.938              3.211
 Vibration     5          0.611              1.924              2.964
 Vibration     6          0.625              1.881              2.450
 Vibration     7          0.637              1.842              2.148
 Vibration     8          0.643              1.824              2.036
 Vibration     9          0.661              1.767              1.751
 Vibration    10          0.671              1.739              1.635
 Vibration    11          0.701              1.648              1.343
 Vibration    12          0.733              1.558              1.129
 Vibration    13          0.788              1.413              0.871
 Vibration    14          0.856              1.248              0.656
 Vibration    15          0.903              1.145              0.550
 Vibration    16          0.919              1.110              0.517

 Optimization completed.
    -- Stationary point found.
 Normal termination of Gaussian 16 at Tue Jun  1 02:23:51 2021.
