 Gaussian 16, Revision A.03,
 Gaussian 16:  ES64L-G16RevA.03 25-Dec-2016

 -----------------------------
 # opt freq b3lyp/6-31g(2df,p)
 -----------------------------

 -------------------
 Title Card Required
 -------------------
 Symbolic Z-matrix:
 Charge =  0 Multiplicity = 1

 SCF Done:  E(RB3LYP) =  -527.394565002     A.U. after   15 cycles
 SCF Done:  E(RB3LYP) =  -527.402359620     A.U. after   12 cycles
 SCF Done:  E(RB3LYP) =  -527.404101336     A.U. after   13 cycles
 SCF Done:  E(RB3LYP) =  -527.405878197     A.U. after   13 cycles
 SCF Done:  E(RB3LYP) =  -527.407939083     A.U. after   15 cycles
 SCF Done:  E(RB3LYP) =  -527.410577436     A.U. after   16 cycles
 SCF Done:  E(RB3LYP) =  -527.411583801     A.U. after   13 cycles
 SCF Done:  E(RB3LYP) =  -527.412037847     A.U. after   12 cycles
 SCF Done:  E(RB3LYP) =  -527.412239301     A.U. after   11 cycles
 SCF Done:  E(RB3LYP) =  -527.412332562     A.U. after   11 cycles
 SCF Done:  E(RB3LYP) =  -527.416184170     A.U. after   12 cycles
 SCF Done:  E(RB3LYP) =  -527.416284417     A.U. after   12 cycles
 SCF Done:  E(RB3LYP) =  -527.416348874     A.U. after   10 cycles
 SCF Done:  E(RB3LYP) =  -527.416361904     A.U. after    9 cycles
 SCF Done:  E(RB3LYP) =  -527.416370110     A.U. after    9 cycles
 SCF Done:  E(RB3LYP) =  -527.416372339     A.U. after    9 cycles
 SCF Done:  E(RB3LYP) =  -527.416372773     A.U. after    8 cycles
 SCF Done:  E(RB3LYP) =  -527.416372970     A.U. after    7 cycles
 SCF Done:  E(RB3LYP) =  -527.416373029     A.U. after    7 cycles
 Optimization completed.
    -- Stationary point found.
 Normal termination of Gaussian 16 at Mon May 31 19:36:55 2021.

 ----------------------------------------------------------------------
 #N Geom=AllCheck Guess=TCheck SCRF=Check GenChk RB3LYP/6-31G(2df,p) Fr
 eq
 ----------------------------------------------------------------------

 Structure from the checkpoint file:  "NCNNdNCdCCpNpCN.chk"
 -------------------
 Title Card Required
 -------------------
 Charge =  0 Multiplicity = 1

                         Standard orientation:
 ---------------------------------------------------------------------
 Center     Atomic      Atomic             Coordinates (Angstroms)
 Number     Number       Type             X           Y           Z
 ---------------------------------------------------------------------
      1          7           0       -4.909780    0.938496   -0.189907
      2          6           0       -4.447268   -0.442847   -0.291563
      3          7           0       -3.223078   -0.643433    0.449051
      4          7           0       -2.078632   -0.431954   -0.218125
      5          7           0       -1.092785   -0.217108    0.539243
      6          6           0        0.098943   -0.061162   -0.173632
      7          6           0        1.250343    0.185793    0.457767
      8          6           0        2.580202    0.348196   -0.213709
      9          7           0        3.141866    1.680583    0.058650
     10          6           0        3.533668   -0.800456    0.197366
     11          7           0        4.847067   -0.608129   -0.428295
     12          1           0       -5.857985    1.017689   -0.544934
     13          1           0       -4.324762    1.541737   -0.761324
     14          1           0       -4.235050   -0.794147   -1.310410
     15          1           0       -5.222055   -1.086857    0.137887
     16          1           0       -3.209843   -0.357235    1.426812
     17          1           0        0.042850   -0.145931   -1.259415
     18          1           0        1.232032    0.262184    1.544586
     19          1           0        2.432097    0.272691   -1.301735
     20          1           0        4.142609    1.621160   -0.127129
     21          1           0        3.053879    1.879700    1.052898
     22          1           0        3.059143   -1.766267   -0.041035
     23          1           0        3.671963   -0.768658    1.285638
     24          1           0        4.797893   -0.845175   -1.415246
     25          1           0        5.529286   -1.237214   -0.018282
 ---------------------------------------------------------------------

 SCF Done:  E(RB3LYP) =  -527.416373029     A.U. after    1 cycles

 The electronic state is 1-A.
 Alpha  occ. eigenvalues --  -14.39891 -14.36920 -14.34457 -14.31913 -14.31217
 Alpha  occ. eigenvalues --  -14.28946 -10.24754 -10.20401 -10.20052 -10.19680
 Alpha  occ. eigenvalues --  -10.17419  -1.06029  -0.92784  -0.89240  -0.86763
 Alpha  occ. eigenvalues --   -0.85307  -0.77304  -0.71114  -0.66972  -0.62609
 Alpha  occ. eigenvalues --   -0.59389  -0.55816  -0.52313  -0.50606  -0.48839
 Alpha  occ. eigenvalues --   -0.47466  -0.46108  -0.45460  -0.44204  -0.42633
 Alpha  occ. eigenvalues --   -0.42004  -0.40270  -0.39391  -0.38738  -0.36021
 Alpha  occ. eigenvalues --   -0.34799  -0.33541  -0.29736  -0.25518  -0.24378
 Alpha  occ. eigenvalues --   -0.23735  -0.22367  -0.20879
 Alpha virt. eigenvalues --   -0.03221   0.06140   0.08237   0.08530   0.10538
 Alpha virt. eigenvalues --    0.11243   0.12939   0.13483   0.14282   0.15187
 Alpha virt. eigenvalues --    0.15394   0.17220   0.17524   0.18638   0.18871

 Mulliken charges:
               1
     1  N   -0.498783
     2  C   -0.105926
     3  N   -0.149758
     4  N   -0.075357
     5  N   -0.209550
     6  C    0.038149
     7  C   -0.083490
     8  C    0.009418
     9  N   -0.519872
    10  C   -0.156160
    11  N   -0.512145
    12  H    0.230906
    13  H    0.236938
    14  H    0.115694
    15  H    0.116288
    16  H    0.236164
    17  H    0.087864
    18  H    0.087318
    19  H    0.068033
    20  H    0.233545
    21  H    0.213772
    22  H    0.084849
    23  H    0.094221
    24  H    0.227469
    25  H    0.230411
 Sum of Mulliken charges =  -0.00000

 Dipole moment (field-independent basis, Debye):
    X=             -1.1489    Y=             -1.8330    Z=             -0.5916  Tot=              2.2427
 Quadrupole moment (field-independent basis, Debye-Ang):
   XX=            -44.6604   YY=            -70.1399   ZZ=            -63.0399
   XY=             -7.7149   XZ=              5.3921   YZ=              0.8669

  Exact polarizability: 199.668   8.367  77.083   4.489   2.140  82.852
 Approx polarizability: 255.421  23.380 113.803  14.068   5.266 131.882

                      1                      2                      3
                      A                      A                      A
 Frequencies --     30.3034                45.0223                70.9975
 Red. masses --      4.0604                 4.0002                 4.1996
 Frc consts  --      0.0022                 0.0048                 0.0125
 IR Inten    --      2.8931                 2.0018                 1.2277

                      4                      5                      6
                      A                      A                      A
 Frequencies --     86.0651               129.7430               142.2042
 Red. masses --      3.0432                 2.9867                 2.6634
 Frc consts  --      0.0133                 0.0296                 0.0317
 IR Inten    --      0.9948                 1.8185                 1.6218

                      7                      8                      9
                      A                      A                      A
 Frequencies --    218.2154               230.9685               237.1879
 Red. masses --      3.7285                 1.2136                 1.7131
 Frc consts  --      0.1046                 0.0381                 0.0568
 IR Inten    --      4.0837                51.8355                 9.5442

                     10                     11                     12
                      A                      A                      A
 Frequencies --    262.8958               277.3777               295.4751
 Red. masses --      1.6274                 1.9678                 1.4671
 Frc consts  --      0.0663                 0.0892                 0.0755
 IR Inten    --     30.2220                22.0215                28.8002

                     13                     14                     15
                      A                      A                      A
 Frequencies --    317.7545               332.9970               443.2287
 Red. masses --      2.9343                 2.7260                 2.9054
 Frc consts  --      0.1746                 0.1781                 0.3363
 IR Inten    --      4.1840                10.8866                22.0081

                     16                     17                     18
                      A                      A                      A
 Frequencies --    459.4915               487.6069               529.0760
 Red. masses --      3.4059                 4.3133                 2.6201
 Frc consts  --      0.4237                 0.6042                 0.4321
 IR Inten    --     40.7250                25.0198                 3.8806

                     19                     20                     21
                      A                      A                      A
 Frequencies --    586.9332               654.1389               697.1524
 Red. masses --      3.1125                 3.6904                 1.5784
 Frc consts  --      0.6317                 0.9304                 0.4520
 IR Inten    --     72.8512                29.4998               136.8775

                     22                     23                     24
                      A                      A                      A
 Frequencies --    821.3313               848.7861               881.8283
 Red. masses --      1.5394                 1.3057                 1.9724
 Frc consts  --      0.6119                 0.5542                 0.9037
 IR Inten    --     45.2310               143.0615                18.0390

                     25                     26                     27
                      A                      A                      A
 Frequencies --    898.3820               935.1536               944.1198
 Red. masses --      1.9867                 1.5659                 1.3251
 Frc consts  --      0.9447                 0.8068                 0.6959
 IR Inten    --    140.5227                 3.7198                32.1132

                     28                     29                     30
                      A                      A                      A
 Frequencies --    991.3690              1003.3559              1037.4262
 Red. masses --      2.0713                 1.1348                 2.1730
 Frc consts  --      1.1994                 0.6731                 1.3779
 IR Inten    --     74.1084                12.9124                 4.7321

                     31                     32                     33
                      A                      A                      A
 Frequencies --   1046.9141              1078.8848              1125.8527
 Red. masses --      2.7914                 2.6662                 2.9616
 Frc consts  --      1.8026                 1.8285                 2.2117
 IR Inten    --     38.3329                15.6213                74.9040

                     34                     35                     36
                      A                      A                      A
 Frequencies --   1144.0681              1167.6908              1183.6206
 Red. masses --      2.1567                 1.4669                 1.9103
 Frc consts  --      1.6632                 1.1784                 1.5768
 IR Inten    --      1.9789                16.6815               121.0951

                     37                     38                     39
                      A                      A                      A
 Frequencies --   1203.6417              1226.0881              1285.4849
 Red. masses --      1.8302                 1.4956                 1.7557
 Frc consts  --      1.5623                 1.3247                 1.7093
 IR Inten    --    109.7986                10.6555               106.0197

                     40                     41                     42
                      A                      A                      A
 Frequencies --   1307.8770              1316.7397              1320.5578
 Red. masses --      1.5008                 1.3767                 1.2634
 Frc consts  --      1.5126                 1.4064                 1.2981
 IR Inten    --     48.0179                 1.8528                 6.6320

                     43                     44                     45
                      A                      A                      A
 Frequencies --   1350.6969              1357.1563              1399.7943
 Red. masses --      1.3675                 1.2286                 1.3362
 Frc consts  --      1.4699                 1.3333                 1.5426
 IR Inten    --     37.8584                 5.7013                27.9709

                     46                     47                     48
                      A                      A                      A
 Frequencies --   1420.5875              1434.8727              1488.0050
 Red. masses --      1.5084                 1.3167                 1.6212
 Frc consts  --      1.7935                 1.5973                 2.1149
 IR Inten    --     12.5842                11.5473                30.3915

                     49                     50                     51
                      A                      A                      A
 Frequencies --   1494.1017              1497.4502              1548.5749
 Red. masses --      1.1399                 1.0888                 5.1223
 Frc consts  --      1.4992                 1.4385                 7.2374
 IR Inten    --      1.5157                 1.9400               257.1048

                     52                     53                     54
                      A                      A                      A
 Frequencies --   1649.8095              1656.4666              1657.3045
 Red. masses --      1.0970                 1.0873                 1.0897
 Frc consts  --      1.7593                 1.7578                 1.7635
 IR Inten    --     27.5052                14.1117                33.6708

                     55                     56                     57
                      A                      A                      A
 Frequencies --   1721.1070              2965.3649              2986.4913
 Red. masses --      6.0000                 1.0690                 1.0813
 Frc consts  --     10.4718                 5.5385                 5.6822
 IR Inten    --      0.7678                63.0655                22.0409

                     58                     59                     60
                      A                      A                      A
 Frequencies --   3015.9148              3046.9601              3072.5711
 Red. masses --      1.0623                 1.0941                 1.1013
 Frc consts  --      5.6929                 5.9844                 6.1256
 IR Inten    --     55.8810                40.5494                37.7627

                     61                     62                     63
                      A                      A                      A
 Frequencies --   3121.6528              3137.0543              3452.0343
 Red. masses --      1.0899                 1.0872                 1.0488
 Frc consts  --      6.2579                 6.3040                 7.3640
 IR Inten    --     26.5608                13.0124                 7.4037

                     64                     65                     66
                      A                      A                      A
 Frequencies --   3477.8345              3489.7580              3492.7882
 Red. masses --      1.0737                 1.0490                 1.0500
 Frc consts  --      7.6518                 7.5271                 7.5470
 IR Inten    --      7.3498                 1.6585                 0.3363

                     67                     68                     69
                      A                      A                      A
 Frequencies --   3533.3569              3573.2625              3575.5168
 Red. masses --      1.0908                 1.0918                 1.0931
 Frc consts  --      8.0237                 8.2138                 8.2338
 IR Inten    --      3.5223                 0.5522                 0.4941

 - Thermochemistry -
 -------------------
 Temperature   298.150 Kelvin.  Pressure   1.00000 Atm.
 Atom     1 has atomic number  7 and mass  14.00307

 Molecular mass:   158.12799 amu.
 Principal axes and moments of inertia in atomic units:
                           1         2         3
     Eigenvalues --   452.095676301.771886534.12150
           X            0.99998  -0.00498   0.00330
           Y            0.00494   0.99989   0.01432
           Z           -0.00337  -0.01430   0.99989
 This molecule is an asymmetric top.
 Rotational symmetry number  1.
 Warning -- assumption of classical behavior for rotation
           may cause significant error
 Rotational temperatures (Kelvin)      0.19158     0.01374     0.01326
 Rotational constants (GHZ):           3.99195     0.28639     0.27620
 Zero-point vibrational energy     567750.6 (Joules/Mol)
                                  135.69566 (Kcal/Mol)
 Warning -- explicit consideration of  19 degrees of freedom as
           vibrations may cause significant error
 Vibrational temperatures:     43.60    64.78   102.15   123.83   186.67
          (Kelvin)            204.60   313.96   332.31   341.26   378.25
                              399.08   425.12   457.18   479.11   637.71
                              661.11   701.56   761.22   844.47   941.16
                             1003.05  1181.71  1221.21  1268.75  1292.57
                             1345.48  1358.38  1426.36  1443.61  1492.62
                             1506.28  1552.27  1619.85  1646.06  1680.05
                             1702.97  1731.77  1764.07  1849.53  1881.74
                             1894.49  1899.99  1943.35  1952.65  2013.99
                             2043.91  2064.46  2140.91  2149.68  2154.50
                             2228.05  2373.71  2383.29  2384.49  2476.29
                             4266.50  4296.89  4339.23  4383.90  4420.74
                             4491.36  4513.52  4966.71  5003.83  5020.98
                             5025.34  5083.71  5141.13  5144.37

 Zero-point correction=                           0.216245 (Hartree/Particle)
 Thermal correction to Energy=                    0.229469
 Thermal correction to Enthalpy=                  0.230413
 Thermal correction to Gibbs Free Energy=         0.175513
 Sum of electronic and zero-point Energies=           -527.200128
 Sum of electronic and thermal Energies=              -527.186904
 Sum of electronic and thermal Enthalpies=            -527.185960
 Sum of electronic and thermal Free Energies=         -527.240860

                     E (Thermal)             CV                S
                      KCal/Mol        Cal/Mol-Kelvin    Cal/Mol-Kelvin
 Total                  143.994             47.215            115.547
 Electronic               0.000              0.000              0.000
 Translational            0.889              2.981             41.084
 Rotational               0.889              2.981             31.299
 Vibrational            142.217             41.253             43.164
 Vibration     1          0.594              1.984              5.809
 Vibration     2          0.595              1.979              5.025
 Vibration     3          0.598              1.968              4.126
 Vibration     4          0.601              1.959              3.748
 Vibration     5          0.612              1.924              2.950
 Vibration     6          0.616              1.911              2.774
 Vibration     7          0.646              1.813              1.974
 Vibration     8          0.653              1.794              1.871
 Vibration     9          0.656              1.784              1.824
 Vibration    10          0.670              1.741              1.642
 Vibration    11          0.678              1.715              1.550
 Vibration    12          0.690              1.682              1.442
 Vibration    13          0.704              1.640              1.322
 Vibration    14          0.715              1.610              1.246
 Vibration    15          0.803              1.376              0.817
 Vibration    16          0.817              1.340              0.768
 Vibration    17          0.844              1.278              0.690
 Vibration    18          0.884              1.186              0.589
 Vibration    19          0.944              1.060              0.473

 Optimization completed.
    -- Stationary point found.
 Normal termination of Gaussian 16 at Mon May 31 20:32:37 2021.
