 Gaussian 16, Revision A.03,
 Gaussian 16:  ES64L-G16RevA.03 25-Dec-2016

 -----------------------------
 # opt freq b3lyp/6-31g(2df,p)
 -----------------------------

 -------------------
 Title Card Required
 -------------------
 Symbolic Z-matrix:
 Charge =  0 Multiplicity = 1

 SCF Done:  E(RB3LYP) =  -485.803302538     A.U. after   15 cycles
 SCF Done:  E(RB3LYP) =  -485.818040236     A.U. after   13 cycles
 SCF Done:  E(RB3LYP) =  -485.822105764     A.U. after   12 cycles
 SCF Done:  E(RB3LYP) =  -485.827160026     A.U. after   12 cycles
 SCF Done:  E(RB3LYP) =  -485.831740446     A.U. after   13 cycles
 SCF Done:  E(RB3LYP) =  -485.835904862     A.U. after   13 cycles
 SCF Done:  E(RB3LYP) =  -485.839967300     A.U. after   13 cycles
 SCF Done:  E(RB3LYP) =  -485.842696418     A.U. after   13 cycles
 SCF Done:  E(RB3LYP) =  -485.845778193     A.U. after   13 cycles
 SCF Done:  E(RB3LYP) =  -485.849208421     A.U. after   14 cycles
 SCF Done:  E(RB3LYP) =  -485.855793812     A.U. after   12 cycles
 SCF Done:  E(RB3LYP) =  -485.857226570     A.U. after   12 cycles
 SCF Done:  E(RB3LYP) =  -485.857833027     A.U. after   11 cycles
 SCF Done:  E(RB3LYP) =  -485.858159971     A.U. after   12 cycles
 SCF Done:  E(RB3LYP) =  -485.858181407     A.U. after   11 cycles
 SCF Done:  E(RB3LYP) =  -485.858242990     A.U. after   10 cycles
 SCF Done:  E(RB3LYP) =  -485.858258579     A.U. after   10 cycles
 SCF Done:  E(RB3LYP) =  -485.858259444     A.U. after    7 cycles
 SCF Done:  E(RB3LYP) =  -485.858259581     A.U. after    7 cycles
 Optimization completed.
    -- Stationary point found.
 Normal termination of Gaussian 16 at Mon May 31 17:58:12 2021.

 ----------------------------------------------------------------------
 #N Geom=AllCheck Guess=TCheck SCRF=Check GenChk RB3LYP/6-31G(2df,p) Fr
 eq
 ----------------------------------------------------------------------

 Structure from the checkpoint file:  "NCNNNpCdOpNN.chk"
 -------------------
 Title Card Required
 -------------------
 Charge =  0 Multiplicity = 1

                         Standard orientation:
 ---------------------------------------------------------------------
 Center     Atomic      Atomic             Coordinates (Angstroms)
 Number     Number       Type             X           Y           Z
 ---------------------------------------------------------------------
      1          7           0        3.448161    0.094747    0.465265
      2          6           0        2.247898   -0.361614   -0.216266
      3          7           0        1.250755    0.700400   -0.083240
      4          7           0        0.083612    0.521257   -0.869588
      5          7           0       -0.996619    0.044150   -0.131272
      6          6           0       -1.909452    0.955800    0.365992
      7          8           0       -1.969542    2.128270    0.105959
      8          7           0       -0.896354   -1.240380    0.457283
      9          7           0       -1.786634   -2.217364   -0.071531
     10          1           0        4.229277   -0.515761    0.253325
     11          1           0        3.305656    0.069456    1.470059
     12          1           0        1.797879   -1.283213    0.179663
     13          1           0        2.518780   -0.551015   -1.272716
     14          1           0        1.673444    1.580760   -0.362672
     15          1           0        0.245715   -0.128516   -1.637175
     16          1           0       -2.617378    0.440404    1.050639
     17          1           0       -1.082173   -1.169310    1.451999
     18          1           0       -1.382419   -2.561102   -0.937504
     19          1           0       -2.683567   -1.792660   -0.310050
 ---------------------------------------------------------------------

 SCF Done:  E(RB3LYP) =  -485.858259581     A.U. after    1 cycles

 The electronic state is 1-A.
 Alpha  occ. eigenvalues --  -19.11279 -14.40121 -14.39267 -14.38224 -14.35547
 Alpha  occ. eigenvalues --  -14.34085 -14.31830 -10.28051 -10.23490  -1.06870
 Alpha  occ. eigenvalues --   -1.02093  -0.97894  -0.90896  -0.86652  -0.78257
 Alpha  occ. eigenvalues --   -0.72941  -0.64788  -0.60171  -0.56293  -0.53254
 Alpha  occ. eigenvalues --   -0.51412  -0.51229  -0.48800  -0.48232  -0.44419
 Alpha  occ. eigenvalues --   -0.42510  -0.42151  -0.40249  -0.38909  -0.30478
 Alpha  occ. eigenvalues --   -0.28974  -0.26680  -0.25945  -0.25188  -0.25099
 Alpha  occ. eigenvalues --   -0.23312
 Alpha virt. eigenvalues --    0.01306   0.05963   0.07752   0.09302   0.09783
 Alpha virt. eigenvalues --    0.12970   0.13229   0.13895   0.14660   0.16067
 Alpha virt. eigenvalues --    0.16794   0.18737   0.19826   0.22343   0.23090

 Mulliken charges:
               1
     1  N   -0.510844
     2  C   -0.092575
     3  N   -0.240572
     4  N   -0.245355
     5  N   -0.017874
     6  C    0.176047
     7  O   -0.293319
     8  N   -0.261079
     9  N   -0.435034
    10  H    0.233049
    11  H    0.236000
    12  H    0.110619
    13  H    0.079106
    14  H    0.241438
    15  H    0.225929
    16  H    0.065815
    17  H    0.254526
    18  H    0.244720
    19  H    0.229403
 Sum of Mulliken charges =  -0.00000

 Dipole moment (field-independent basis, Debye):
    X=              1.3723    Y=             -3.9875    Z=             -0.3599  Tot=              4.2324
 Quadrupole moment (field-independent basis, Debye-Ang):
   XX=            -48.3431   YY=            -63.9175   ZZ=            -47.8642
   XY=              2.2649   XZ=              0.3563   YZ=              2.9914

  Exact polarizability:  85.838  -1.195  74.656  -2.595   1.899  58.005
 Approx polarizability: 104.280  -3.341 115.288  -3.751   1.557  88.246

                      1                      2                      3
                      A                      A                      A
 Frequencies --     48.9562                73.5033                83.9496
 Red. masses --      5.2396                 3.1598                 2.7101
 Frc consts  --      0.0074                 0.0101                 0.0113
 IR Inten    --      1.2736                 1.7546                 1.1669

                      4                      5                      6
                      A                      A                      A
 Frequencies --    113.8002               132.8765               236.1319
 Red. masses --      2.5860                 3.6828                 3.4166
 Frc consts  --      0.0197                 0.0383                 0.1122
 IR Inten    --      3.3516                 0.4310                 0.3461

                      7                      8                      9
                      A                      A                      A
 Frequencies --    254.8716               260.3249               306.3659
 Red. masses --      2.3528                 1.4741                 1.4731
 Frc consts  --      0.0900                 0.0589                 0.0815
 IR Inten    --     17.3921                49.6035                18.9055

                     10                     11                     12
                      A                      A                      A
 Frequencies --    349.5128               381.0837               461.6020
 Red. masses --      2.9171                 2.8394                 2.0326
 Frc consts  --      0.2100                 0.2430                 0.2552
 IR Inten    --     14.6884                 4.0921                34.1124

                     13                     14                     15
                      A                      A                      A
 Frequencies --    497.1399               623.8758               666.1077
 Red. masses --      4.5687                 3.9635                 3.9283
 Frc consts  --      0.6653                 0.9089                 1.0269
 IR Inten    --     12.5467                30.0257                18.3920

                     16                     17                     18
                      A                      A                      A
 Frequencies --    717.6737               822.7585               847.9548
 Red. masses --      2.5660                 1.8257                 1.4512
 Frc consts  --      0.7787                 0.7282                 0.6148
 IR Inten    --     12.4971                78.5569               174.6415

                     19                     20                     21
                      A                      A                      A
 Frequencies --    860.6665               914.6104               964.9746
 Red. masses --      2.2119                 1.7035                 1.4464
 Frc consts  --      0.9653                 0.8396                 0.7935
 IR Inten    --    125.1532               107.0559                 7.9787

                     22                     23                     24
                      A                      A                      A
 Frequencies --   1015.0862              1029.9734              1079.8552
 Red. masses --      2.0963                 1.6324                 3.4785
 Frc consts  --      1.2727                 1.0203                 2.3899
 IR Inten    --     20.6382                 3.2559                 3.1053

                     25                     26                     27
                      A                      A                      A
 Frequencies --   1120.3565              1126.9719              1167.2920
 Red. masses --      3.3532                 3.5596                 2.0386
 Frc consts  --      2.4799                 2.6636                 1.6366
 IR Inten    --     67.7604                 0.1806                 4.8802

                     28                     29                     30
                      A                      A                      A
 Frequencies --   1180.1030              1231.5932              1293.8454
 Red. masses --      2.1836                 1.3992                 1.7373
 Frc consts  --      1.7917                 1.2504                 1.7135
 IR Inten    --     24.0944                11.7309                83.5367

                     31                     32                     33
                      A                      A                      A
 Frequencies --   1330.1001              1343.3692              1420.8203
 Red. masses --      1.2822                 2.0181                 1.2435
 Frc consts  --      1.3366                 2.1458                 1.4790
 IR Inten    --      1.9807                43.1655                14.2651

                     34                     35                     36
                      A                      A                      A
 Frequencies --   1432.5060              1484.1310              1505.6428
 Red. masses --      1.1938                 1.1769                 1.1153
 Frc consts  --      1.4433                 1.5273                 1.4896
 IR Inten    --      0.3381                18.3345                 6.9660

                     37                     38                     39
                      A                      A                      A
 Frequencies --   1528.2645              1545.2151              1648.4357
 Red. masses --      1.1654                 1.1036                 1.0986
 Frc consts  --      1.6036                 1.5526                 1.7589
 IR Inten    --      1.5978                 1.8304                25.9192

                     40                     41                     42
                      A                      A                      A
 Frequencies --   1689.0798              1833.7502              2899.3629
 Red. masses --      1.0645                 9.3708                 1.0828
 Frc consts  --      1.7893                18.5655                 5.3631
 IR Inten    --     13.4726               340.4988                96.6748

                     43                     44                     45
                      A                      A                      A
 Frequencies --   2917.6952              3009.0764              3430.8350
 Red. masses --      1.0705                 1.0892                 1.0519
 Frc consts  --      5.3694                 5.8106                 7.2947
 IR Inten    --     84.2947                41.4979                 4.3880

                     46                     47                     48
                      A                      A                      A
 Frequencies --   3450.0692              3507.5353              3512.6945
 Red. masses --      1.0737                 1.0495                 1.0751
 Frc consts  --      7.5302                 7.6076                 7.8159
 IR Inten    --      5.2188                 0.3531                 3.6762

                     49                     50                     51
                      A                      A                      A
 Frequencies --   3521.1668              3546.1893              3593.5735
 Red. masses --      1.0768                 1.0880                 1.0926
 Frc consts  --      7.8660                 8.0611                 8.3134
 IR Inten    --      2.3396                 2.2092                 1.4853

 - Thermochemistry -
 -------------------
 Temperature   298.150 Kelvin.  Pressure   1.00000 Atm.
 Atom     1 has atomic number  7 and mass  14.00307

 Molecular mass:   134.09161 amu.
 Principal axes and moments of inertia in atomic units:
                           1         2         3
     Eigenvalues --   829.625641834.495512448.07783
           X            0.99984   0.01809  -0.00024
           Y           -0.01809   0.99978   0.01044
           Z            0.00043  -0.01043   0.99995
 This molecule is an asymmetric top.
 Rotational symmetry number  1.
 Warning -- assumption of classical behavior for rotation
           may cause significant error
 Rotational temperatures (Kelvin)      0.10440     0.04721     0.03538
 Rotational constants (GHZ):           2.17537     0.98378     0.73721
 Zero-point vibrational energy     418772.7 (Joules/Mol)
                                  100.08908 (Kcal/Mol)
 Warning -- explicit consideration of  13 degrees of freedom as
           vibrations may cause significant error
 Vibrational temperatures:     70.44   105.75   120.78   163.73   191.18
          (Kelvin)            339.74   366.70   374.55   440.79   502.87
                              548.29   664.14   715.27   897.62   958.38
                             1032.57  1183.77  1220.02  1238.31  1315.92
                             1388.38  1460.48  1481.90  1553.67  1611.94
                             1621.46  1679.47  1697.91  1771.99  1861.56
                             1913.72  1932.81  2044.24  2061.06  2135.33
                             2166.28  2198.83  2223.22  2371.73  2430.21
                             2638.36  4171.54  4197.91  4329.39  4936.21
                             4963.88  5046.56  5053.98  5066.17  5102.18
                             5170.35

 Zero-point correction=                           0.159502 (Hartree/Particle)
 Thermal correction to Energy=                    0.170081
 Thermal correction to Enthalpy=                  0.171025
 Thermal correction to Gibbs Free Energy=         0.122672
 Sum of electronic and zero-point Energies=           -485.698757
 Sum of electronic and thermal Energies=              -485.688178
 Sum of electronic and thermal Enthalpies=            -485.687234
 Sum of electronic and thermal Free Energies=         -485.735587

                     E (Thermal)             CV                S
                      KCal/Mol        Cal/Mol-Kelvin    Cal/Mol-Kelvin
 Total                  106.728             36.817            101.767
 Electronic               0.000              0.000              0.000
 Translational            0.889              2.981             40.592
 Rotational               0.889              2.981             29.700
 Vibrational            104.950             30.856             31.475
 Vibration     1          0.595              1.978              4.859
 Vibration     2          0.599              1.966              4.057
 Vibration     3          0.601              1.960              3.796
 Vibration     4          0.607              1.938              3.203
 Vibration     5          0.613              1.920              2.904
 Vibration     6          0.655              1.785              1.832
 Vibration     7          0.665              1.755              1.697
 Vibration     8          0.668              1.745              1.660
 Vibration     9          0.697              1.662              1.382
 Vibration    10          0.727              1.576              1.168
 Vibration    11          0.751              1.511              1.035
 Vibration    12          0.819              1.335              0.761
 Vibration    13          0.853              1.256              0.665

                           ! Non-Optimized Parameters !
 Normal termination of Gaussian 16 at Mon May 31 18:26:58 2021.
