 Gaussian 16, Revision A.03,
 Gaussian 16:  ES64L-G16RevA.03 25-Dec-2016

 -----------------------------
 # opt freq b3lyp/6-31g(2df,p)
 -----------------------------

 -------------------
 Title Card Required
 -------------------
 Symbolic Z-matrix:
 Charge =  0 Multiplicity = 1

 SCF Done:  E(RB3LYP) =  -560.575086345     A.U. after   13 cycles
 SCF Done:  E(RB3LYP) =  -560.591484559     A.U. after   12 cycles
 SCF Done:  E(RB3LYP) =  -560.594473543     A.U. after   11 cycles
 SCF Done:  E(RB3LYP) =  -560.595785657     A.U. after   12 cycles
 SCF Done:  E(RB3LYP) =  -560.596746522     A.U. after   12 cycles
 SCF Done:  E(RB3LYP) =  -560.599282544     A.U. after   14 cycles
 SCF Done:  E(RB3LYP) =  -560.601881165     A.U. after   13 cycles
 SCF Done:  E(RB3LYP) =  -560.605416262     A.U. after   13 cycles
 SCF Done:  E(RB3LYP) =  -560.611429474     A.U. after   13 cycles
 SCF Done:  E(RB3LYP) =  -560.615510419     A.U. after   13 cycles
 SCF Done:  E(RB3LYP) =  -560.620023685     A.U. after   11 cycles
 SCF Done:  E(RB3LYP) =  -560.620046247     A.U. after   10 cycles
 SCF Done:  E(RB3LYP) =  -560.620051403     A.U. after    9 cycles
 SCF Done:  E(RB3LYP) =  -560.620052707     A.U. after    9 cycles
 SCF Done:  E(RB3LYP) =  -560.620053173     A.U. after    8 cycles
 SCF Done:  E(RB3LYP) =  -560.620053417     A.U. after    8 cycles
 SCF Done:  E(RB3LYP) =  -560.620053461     A.U. after    7 cycles
 SCF Done:  E(RB3LYP) =  -560.620053482     A.U. after    7 cycles
 SCF Done:  E(RB3LYP) =  -560.620053493     A.U. after    7 cycles
 Optimization completed.
    -- Stationary point found.
 Normal termination of Gaussian 16 at Mon May 31 13:50:51 2021.

 ----------------------------------------------------------------------
 #N Geom=AllCheck Guess=TCheck SCRF=Check GenChk RB3LYP/6-31G(2df,p) Fr
 eq
 ----------------------------------------------------------------------

 Structure from the checkpoint file:  "NCNNNNCCNdNN.chk"
 -------------------
 Title Card Required
 -------------------
 Charge =  0 Multiplicity = 1

                         Standard orientation:
 ---------------------------------------------------------------------
 Center     Atomic      Atomic             Coordinates (Angstroms)
 Number     Number       Type             X           Y           Z
 ---------------------------------------------------------------------
      1          7           0        5.343434   -0.635656   -0.284785
      2          6           0        4.203166    0.152081    0.160126
      3          7           0        3.034245   -0.722386    0.150633
      4          7           0        1.831546   -0.131783    0.597514
      5          7           0        1.250249    0.562286   -0.575090
      6          7           0        0.002265    1.076346   -0.142561
      7          6           0       -1.097679    0.112673   -0.151717
      8          6           0       -2.369954    0.759884    0.402036
      9          7           0       -3.435690   -0.235746    0.489830
     10          7           0       -4.383859    0.019151   -0.276713
     11          7           0       -5.340504   -0.947209   -0.280463
     12          1           0        6.202865   -0.111821   -0.158409
     13          1           0        5.252985   -0.834154   -1.276590
     14          1           0        3.951676    1.018727   -0.469555
     15          1           0        4.436549    0.533414    1.171819
     16          1           0        3.212510   -1.545720    0.714871
     17          1           0        2.031469    0.648121    1.231173
     18          1           0        1.103643   -0.219281   -1.222326
     19          1           0       -0.201417    1.873927   -0.734152
     20          1           0       -0.804661   -0.726507    0.485171
     21          1           0       -1.302727   -0.289189   -1.160603
     22          1           0       -2.679702    1.609719   -0.221639
     23          1           0       -2.162175    1.123521    1.414560
     24          1           0       -6.244132   -0.566588   -0.520006
     25          1           0       -5.321881   -1.557028    0.534459
 ---------------------------------------------------------------------

 SCF Done:  E(RB3LYP) =  -560.620053493     A.U. after    1 cycles

 The electronic state is 1-A.
 Alpha  occ. eigenvalues --  -14.40205 -14.36288 -14.35310 -14.35276 -14.34811
 Alpha  occ. eigenvalues --  -14.33470 -14.33131 -14.30969 -10.22497 -10.20147
 Alpha  occ. eigenvalues --  -10.19942  -1.05721  -1.00538  -0.93569  -0.89186
 Alpha  occ. eigenvalues --   -0.87563  -0.79958  -0.74244  -0.68620  -0.63513
 Alpha  occ. eigenvalues --   -0.62890  -0.58874  -0.53254  -0.52460  -0.50521
 Alpha  occ. eigenvalues --   -0.49472  -0.48344  -0.45918  -0.44883  -0.43571
 Alpha  occ. eigenvalues --   -0.42294  -0.41655  -0.40332  -0.38848  -0.38407
 Alpha  occ. eigenvalues --   -0.36437  -0.33918  -0.31582  -0.25125  -0.24595
 Alpha  occ. eigenvalues --   -0.23603  -0.23417  -0.23235  -0.19364
 Alpha virt. eigenvalues --   -0.01250   0.08474   0.08816   0.09929   0.10367
 Alpha virt. eigenvalues --    0.11786   0.13281   0.14152   0.14301   0.14769
 Alpha virt. eigenvalues --    0.15832   0.16754   0.17340   0.17692   0.19964

 Mulliken charges:
               1
     1  N   -0.511919
     2  C   -0.083230
     3  N   -0.247887
     4  N   -0.251099
     5  N   -0.254319
     6  N   -0.269483
     7  C   -0.120875
     8  C   -0.135245
     9  N   -0.164974
    10  N   -0.059209
    11  N   -0.379350
    12  H    0.229086
    13  H    0.232243
    14  H    0.108356
    15  H    0.079184
    16  H    0.232661
    17  H    0.219499
    18  H    0.217728
    19  H    0.228104
    20  H    0.136131
    21  H    0.084094
    22  H    0.093468
    23  H    0.117320
    24  H    0.260460
    25  H    0.239256
 Sum of Mulliken charges =  -0.00000

 Dipole moment (field-independent basis, Debye):
    X=             -0.7159    Y=              0.8451    Z=             -0.2372  Tot=              1.1327
 Quadrupole moment (field-independent basis, Debye-Ang):
   XX=            -42.6169   YY=            -67.2651   ZZ=            -65.3664
   XY=              6.2302   XZ=             -2.8871   YZ=             -0.3653

  Exact polarizability: 152.044   5.818  81.229   7.697   0.914  75.392
 Approx polarizability: 171.805   6.767 124.064  17.373   2.373 120.209

                      1                      2                      3
                      A                      A                      A
 Frequencies --     18.6055                36.4128                51.0124
 Red. masses --      5.0427                 3.4279                 4.2231
 Frc consts  --      0.0010                 0.0027                 0.0065
 IR Inten    --      2.3115                 2.6087                 2.0151

                      4                      5                      6
                      A                      A                      A
 Frequencies --     68.9701                87.7125               118.6534
 Red. masses --      3.5224                 3.3661                 2.3020
 Frc consts  --      0.0099                 0.0153                 0.0191
 IR Inten    --      1.5183                 1.1939                 1.8109

                      7                      8                      9
                      A                      A                      A
 Frequencies --    160.7302               170.2634               248.4799
 Red. masses --      2.8342                 3.0943                 1.3238
 Frc consts  --      0.0431                 0.0529                 0.0482
 IR Inten    --      2.2854                 4.6791                42.3264

                     10                     11                     12
                      A                      A                      A
 Frequencies --    272.7875               314.7572               336.3422
 Red. masses --      3.6471                 2.6820                 3.1153
 Frc consts  --      0.1599                 0.1566                 0.2076
 IR Inten    --     14.9812                 7.9407                 5.2373

                     13                     14                     15
                      A                      A                      A
 Frequencies --    365.5787               372.5882               435.2055
 Red. masses --      2.6821                 3.0781                 5.0165
 Frc consts  --      0.2112                 0.2518                 0.5598
 IR Inten    --     38.0743                15.7971                 6.6479

                     16                     17                     18
                      A                      A                      A
 Frequencies --    496.7218               522.0905               614.3772
 Red. masses --      3.0656                 1.3310                 3.4669
 Frc consts  --      0.4457                 0.2138                 0.7710
 IR Inten    --      5.3227                93.5862                43.3112

                     19                     20                     21
                      A                      A                      A
 Frequencies --    646.7486               695.2367               748.8011
 Red. masses --      2.3242                 1.9359                 1.6066
 Frc consts  --      0.5728                 0.5513                 0.5308
 IR Inten    --    148.1215                72.4524                12.8826

                     22                     23                     24
                      A                      A                      A
 Frequencies --    769.7994               825.1811               856.2492
 Red. masses --      1.5706                 1.1932                 1.2726
 Frc consts  --      0.5484                 0.4787                 0.5497
 IR Inten    --    100.6521                 1.9684               170.2241

                     25                     26                     27
                      A                      A                      A
 Frequencies --    909.6917               966.2025              1019.3962
 Red. masses --      4.7365                 1.3697                 1.6788
 Frc consts  --      2.3094                 0.7534                 1.0279
 IR Inten    --      0.9996                18.7474                35.5351

                     28                     29                     30
                      A                      A                      A
 Frequencies --   1026.9296              1049.7586              1072.6913
 Red. masses --      2.7151                 2.1504                 2.8422
 Frc consts  --      1.6870                 1.3962                 1.9269
 IR Inten    --      4.5052                33.6904                 5.3497

                     31                     32                     33
                      A                      A                      A
 Frequencies --   1087.3419              1111.1646              1128.9420
 Red. masses --      2.1919                 5.7211                 2.8807
 Frc consts  --      1.5269                 4.1619                 2.1632
 IR Inten    --     13.7488                21.4476               118.4033

                     34                     35                     36
                      A                      A                      A
 Frequencies --   1148.1146              1170.5626              1201.6407
 Red. masses --      2.9756                 1.8980                 2.2493
 Frc consts  --      2.3110                 1.5323                 1.9136
 IR Inten    --     15.7323                 3.7479                22.8114

                     37                     38                     39
                      A                      A                      A
 Frequencies --   1231.3601              1244.4884              1253.4369
 Red. masses --      1.4677                 1.3237                 1.3980
 Frc consts  --      1.3112                 1.2078                 1.2941
 IR Inten    --      8.0619                10.2859                 1.3166

                     40                     41                     42
                      A                      A                      A
 Frequencies --   1297.1455              1317.0235              1325.6628
 Red. masses --      1.2476                 1.6358                 1.2311
 Frc consts  --      1.2368                 1.6717                 1.2747
 IR Inten    --      4.8186                32.9489                11.4429

                     43                     44                     45
                      A                      A                      A
 Frequencies --   1332.8843              1392.5785              1415.8686
 Red. masses --      1.3218                 1.3779                 1.2544
 Frc consts  --      1.3836                 1.5744                 1.4816
 IR Inten    --      4.2660                 2.2334                 4.5195

                     46                     47                     48
                      A                      A                      A
 Frequencies --   1429.8135              1478.3647              1485.2934
 Red. masses --      1.2007                 1.2042                 1.1078
 Frc consts  --      1.4462                 1.5506                 1.4399
 IR Inten    --     17.0389                32.9156                 0.3339

                     49                     50                     51
                      A                      A                      A
 Frequencies --   1493.0248              1514.4230              1529.8432
 Red. masses --      1.1618                 1.0911                 1.0988
 Frc consts  --      1.5258                 1.4743                 1.5151
 IR Inten    --      1.8889                 3.5669                 0.3984

                     52                     53                     54
                      A                      A                      A
 Frequencies --   1541.2583              1614.3738              1632.7548
 Red. masses --      1.0920                 1.5164                 2.7971
 Frc consts  --      1.5283                 2.3284                 4.3934
 IR Inten    --      0.2869                98.3804                32.1298

                     55                     56                     57
                      A                      A                      A
 Frequencies --   1645.1823              2926.7951              2940.5438
 Red. masses --      1.0989                 1.0687                 1.0717
 Frc consts  --      1.7524                 5.3939                 5.4599
 IR Inten    --     27.9237                89.4374                54.9899

                     58                     59                     60
                      A                      A                      A
 Frequencies --   2997.9813              3007.6614              3071.2646
 Red. masses --      1.0909                 1.0603                 1.0980
 Frc consts  --      5.7771                 5.6514                 6.1024
 IR Inten    --     47.2052                37.8059                14.2849

                     61                     62                     63
                      A                      A                      A
 Frequencies --   3097.3834              3356.7307              3370.3044
 Red. masses --      1.0914                 1.0731                 1.0755
 Frc consts  --      6.1689                 7.1242                 7.1980
 IR Inten    --     17.1949                 0.8662                12.8753

                     64                     65                     66
                      A                      A                      A
 Frequencies --   3462.9469              3500.6304              3531.3907
 Red. masses --      1.0490                 1.0493                 1.0749
 Frc consts  --      7.4117                 7.5758                 7.8979
 IR Inten    --      3.0597                 0.3481                 1.2186

                     67                     68                     69
                      A                      A                      A
 Frequencies --   3536.1778              3586.4414              3653.1283
 Red. masses --      1.0753                 1.0926                 1.0947
 Frc consts  --      7.9221                 8.2801                 8.6072
 IR Inten    --      2.6095                 0.6338                30.9435

 - Thermochemistry -
 -------------------
 Temperature   298.150 Kelvin.  Pressure   1.00000 Atm.
 Atom     1 has atomic number  7 and mass  14.00307

 Molecular mass:   162.13414 amu.
 Principal axes and moments of inertia in atomic units:
                           1         2         3
     Eigenvalues --   361.737076985.219517125.51730
           X            1.00000   0.00169  -0.00087
           Y           -0.00168   0.99992   0.01237
           Z            0.00089  -0.01237   0.99992
 This molecule is an asymmetric top.
 Rotational symmetry number  1.
 Rotational temperatures (Kelvin)      0.23944     0.01240     0.01216
 Rotational constants (GHZ):           4.98910     0.25837     0.25328
 Zero-point vibrational energy     570259.3 (Joules/Mol)
                                  136.29523 (Kcal/Mol)
 Warning -- explicit consideration of  18 degrees of freedom as
           vibrations may cause significant error
 Vibrational temperatures:     26.77    52.39    73.40    99.23   126.20
          (Kelvin)            170.72   231.25   244.97   357.51   392.48
                              452.87   483.92   525.99   536.07   626.16
                              714.67   751.17   883.95   930.53  1000.29
                             1077.36  1107.57  1187.25  1231.95  1308.84
                             1390.15  1466.68  1477.52  1510.37  1543.36
                             1564.44  1598.72  1624.30  1651.88  1684.18
                             1728.89  1771.65  1790.54  1803.42  1866.30
                             1894.90  1907.33  1917.72  2003.61  2037.12
                             2057.18  2127.04  2137.01  2148.13  2178.92
                             2201.10  2217.53  2322.72  2349.17  2367.05
                             4211.01  4230.79  4313.43  4327.35  4418.86
                             4456.44  4829.59  4849.12  4982.41  5036.63
                             5080.88  5087.77  5160.09  5256.04

 Zero-point correction=                           0.217200 (Hartree/Particle)
 Thermal correction to Energy=                    0.230445
 Thermal correction to Enthalpy=                  0.231389
 Thermal correction to Gibbs Free Energy=         0.174963
 Sum of electronic and zero-point Energies=           -560.402853
 Sum of electronic and thermal Energies=              -560.389609
 Sum of electronic and thermal Enthalpies=            -560.388664
 Sum of electronic and thermal Free Energies=         -560.445090

                     E (Thermal)             CV                S
                      KCal/Mol        Cal/Mol-Kelvin    Cal/Mol-Kelvin
 Total                  144.606             46.291            118.758
 Electronic               0.000              0.000              0.000
 Translational            0.889              2.981             41.158
 Rotational               0.889              2.981             31.266
 Vibrational            142.829             40.329             46.334
 Vibration     1          0.593              1.986              6.778
 Vibration     2          0.594              1.982              5.445
 Vibration     3          0.595              1.977              4.778
 Vibration     4          0.598              1.969              4.183
 Vibration     5          0.601              1.958              3.710
 Vibration     6          0.609              1.934              3.122
 Vibration     7          0.622              1.891              2.541
 Vibration     8          0.625              1.879              2.433
 Vibration     9          0.662              1.765              1.741
 Vibration    10          0.676              1.723              1.578
 Vibration    11          0.702              1.645              1.337
 Vibration    12          0.717              1.603              1.229
 Vibration    13          0.739              1.543              1.098
 Vibration    14          0.744              1.528              1.069
 Vibration    15          0.796              1.393              0.842
 Vibration    16          0.852              1.257              0.666
 Vibration    17          0.877              1.201              0.605
 Vibration    18          0.974              1.001              0.426

                           ! Non-Optimized Parameters !
 Normal termination of Gaussian 16 at Mon May 31 14:30:26 2021.
