 Gaussian 16, Revision A.03,
 Gaussian 16:  ES64L-G16RevA.03 25-Dec-2016

 -----------------------------
 # opt freq b3lyp/6-31g(2df,p)
 -----------------------------

 -------------------
 Title Card Required
 -------------------
 Symbolic Z-matrix:
 Charge =  0 Multiplicity = 1

 SCF Done:  E(RB3LYP) =  -280.512698594     A.U. after   14 cycles
 SCF Done:  E(RB3LYP) =  -280.519271035     A.U. after   15 cycles
 SCF Done:  E(RB3LYP) =  -280.523223894     A.U. after   14 cycles
 SCF Done:  E(RB3LYP) =  -280.524474135     A.U. after   13 cycles
 SCF Done:  E(RB3LYP) =  -280.526953069     A.U. after   15 cycles
 SCF Done:  E(RB3LYP) =  -280.528315060     A.U. after   15 cycles
 SCF Done:  E(RB3LYP) =  -280.528725379     A.U. after   14 cycles
 SCF Done:  E(RB3LYP) =  -280.529040163     A.U. after   14 cycles
 SCF Done:  E(RB3LYP) =  -280.529240935     A.U. after   13 cycles
 SCF Done:  E(RB3LYP) =  -280.529285763     A.U. after   13 cycles
 SCF Done:  E(RB3LYP) =  -280.529289831     A.U. after    9 cycles
 SCF Done:  E(RB3LYP) =  -280.529290546     A.U. after    9 cycles
 Optimization completed.
    -- Stationary point found.
 Normal termination of Gaussian 16 at Mon May 31 19:27:42 2021.

 ----------------------------------------------------------------------
 #N Geom=AllCheck Guess=TCheck SCRF=Check GenChk RB3LYP/6-31G(2df,p) Fr
 eq
 ----------------------------------------------------------------------

 Structure from the checkpoint file:  "NCNNdO.chk"
 -------------------
 Title Card Required
 -------------------
 Charge =  0 Multiplicity = 1

                         Standard orientation:
 ---------------------------------------------------------------------
 Center     Atomic      Atomic             Coordinates (Angstroms)
 Number     Number       Type             X           Y           Z
 ---------------------------------------------------------------------
      1          7           0       -2.009766   -0.573490   -0.066839
      2          6           0       -1.120379    0.564350    0.112141
      3          7           0        0.196581    0.262229   -0.400589
      4          7           0        1.209315    0.084710    0.449063
      5          8           0        2.237060   -0.308097   -0.071307
      6          1           0       -2.976214   -0.287782    0.049761
      7          1           0       -1.816216   -1.288731    0.627521
      8          1           0       -0.951576    0.884774    1.149386
      9          1           0       -1.541410    1.411093   -0.441631
     10          1           0        0.338290   -0.054825   -1.358875
 ---------------------------------------------------------------------

 SCF Done:  E(RB3LYP) =  -280.529290546     A.U. after    1 cycles

 The electronic state is 1-A.
 Alpha  occ. eigenvalues --  -19.14947 -14.45002 -14.38734 -14.33183 -10.26323
 Alpha  occ. eigenvalues --   -1.14445  -0.96302  -0.88596  -0.71349  -0.64615
 Alpha  occ. eigenvalues --   -0.53885  -0.50734  -0.48731  -0.47038  -0.44434
 Alpha  occ. eigenvalues --   -0.40900  -0.38528  -0.27985  -0.26364  -0.22496
 Alpha virt. eigenvalues --   -0.03219   0.07207   0.09744   0.12203   0.13352
 Alpha virt. eigenvalues --    0.16518   0.19698   0.21047   0.28108   0.31352
 Alpha virt. eigenvalues --    0.42806   0.44196   0.49293   0.51951   0.54578

 Mulliken charges:
               1
     1  N   -0.498651
     2  C   -0.105186
     3  N   -0.128971
     4  N    0.092552
     5  O   -0.323135
     6  H    0.237347
     7  H    0.239641
     8  H    0.125390
     9  H    0.123243
    10  H    0.237770
 Sum of Mulliken charges =  -0.00000

 Dipole moment (field-independent basis, Debye):
    X=             -3.9686    Y=              0.7194    Z=             -0.0977  Tot=              4.0345
 Quadrupole moment (field-independent basis, Debye-Ang):
   XX=            -31.9150   YY=            -28.4954   ZZ=            -28.6068
   XY=             -0.1011   XZ=             -3.1213   YZ=             -1.6315

  Exact polarizability:  56.068  -3.850  30.196   1.623  -0.033  31.766
 Approx polarizability:  85.582 -10.475  44.465   5.108  -0.484  47.936

                      1                      2                      3
                      A                      A                      A
 Frequencies --     77.3844               199.4368               257.5568
 Red. masses --      5.0130                 3.5175                 1.1284
 Frc consts  --      0.0177                 0.0824                 0.0441
 IR Inten    --      1.6350                20.5381                46.8375

                      4                      5                      6
                      A                      A                      A
 Frequencies --    346.3669               469.8316               645.7716
 Red. masses --      3.0888                 4.2284                 2.9361
 Frc consts  --      0.2183                 0.5499                 0.7214
 IR Inten    --      4.2353                17.3941                35.9038

                      7                      8                      9
                      A                      A                      A
 Frequencies --    674.3339               834.8074               924.5279
 Red. masses --      1.5574                 1.3249                 1.4466
 Frc consts  --      0.4173                 0.5440                 0.7285
 IR Inten    --     76.6742               145.8313                 4.5633

                     10                     11                     12
                      A                      A                      A
 Frequencies --   1066.0027              1128.2253              1160.6545
 Red. masses --      3.4590                 2.9566                 1.7285
 Frc consts  --      2.3159                 2.2173                 1.3719
 IR Inten    --     11.5059               237.7886                25.8721

                     13                     14                     15
                      A                      A                      A
 Frequencies --   1262.3014              1339.0876              1430.5959
 Red. masses --      1.9394                 1.2744                 1.3061
 Frc consts  --      1.8207                 1.3464                 1.5749
 IR Inten    --     51.6539                 7.8749                 3.9822

                     16                     17                     18
                      A                      A                      A
 Frequencies --   1474.7956              1497.8257              1600.6712
 Red. masses --      1.6390                 1.0825                 8.3140
 Frc consts  --      2.1003                 1.4309                12.5506
 IR Inten    --     50.9423                 2.5313               207.3079

                     19                     20                     21
                      A                      A                      A
 Frequencies --   1654.4437              3015.4686              3065.4279
 Red. masses --      1.0967                 1.0602                 1.1030
 Frc consts  --      1.7687                 5.6798                 6.1068
 IR Inten    --     26.3997                39.6859                24.9021

                     22                     23                     24
                      A                      A                      A
 Frequencies --   3477.9223              3501.8031              3589.2158
 Red. masses --      1.0753                 1.0491                 1.0934
 Frc consts  --      7.6635                 7.5800                 8.2993
 IR Inten    --      5.5129                 0.7227                 1.8775

 - Thermochemistry -
 -------------------
 Temperature   298.150 Kelvin.  Pressure   1.00000 Atm.
 Atom     1 has atomic number  7 and mass  14.00307

 Molecular mass:    75.04326 amu.
 Principal axes and moments of inertia in atomic units:
                           1         2         3
     Eigenvalues --    88.16057 703.02571 726.12916
           X            0.99993  -0.00015  -0.01204
           Y           -0.00051   0.99851  -0.05459
           Z            0.01203   0.05459   0.99844
 This molecule is an asymmetric top.
 Rotational symmetry number  1.
 Rotational temperatures (Kelvin)      0.98246     0.12320     0.11928
 Rotational constants (GHZ):          20.47107     2.56711     2.48543
 Zero-point vibrational energy     207518.9 (Joules/Mol)
                                   49.59822 (Kcal/Mol)
 Warning -- explicit consideration of   5 degrees of freedom as
           vibrations may cause significant error
 Vibrational temperatures:    111.34   286.95   370.57   498.34   675.98
          (Kelvin)            929.12   970.22  1201.10  1330.19  1533.74
                             1623.26  1669.92  1816.17  1926.65  2058.31
                             2121.90  2155.04  2303.01  2380.38  4338.59
                             4410.47  5003.95  5038.31  5164.08

 Zero-point correction=                           0.079040 (Hartree/Particle)
 Thermal correction to Energy=                    0.084795
 Thermal correction to Enthalpy=                  0.085739
 Thermal correction to Gibbs Free Energy=         0.050021
 Sum of electronic and zero-point Energies=           -280.450251
 Sum of electronic and thermal Energies=              -280.444495
 Sum of electronic and thermal Enthalpies=            -280.443551
 Sum of electronic and thermal Free Energies=         -280.479270

                     E (Thermal)             CV                S
                      KCal/Mol        Cal/Mol-Kelvin    Cal/Mol-Kelvin
 Total                   53.210             18.740             75.176
 Electronic               0.000              0.000              0.000
 Translational            0.889              2.981             38.862
 Rotational               0.889              2.981             25.312
 Vibrational             51.432             12.778             11.002
 Vibration     1          0.599              1.964              3.956
 Vibration     2          0.638              1.841              2.138
 Vibration     3          0.667              1.750              1.678
 Vibration     4          0.724              1.583              1.183
 Vibration     5          0.827              1.317              0.738

                           ! Non-Optimized Parameters !
 Normal termination of Gaussian 16 at Mon May 31 19:33:52 2021.
