 Gaussian 16, Revision A.03,
 Gaussian 16:  ES64L-G16RevA.03 25-Dec-2016

 -----------------------------
 # opt freq b3lyp/6-31g(2df,p)
 -----------------------------

 -------------------
 Title Card Required
 -------------------
 Symbolic Z-matrix:
 Charge =  0 Multiplicity = 1

 SCF Done:  E(RB3LYP) =  -400.356125261     A.U. after   12 cycles
 SCF Done:  E(RB3LYP) =  -400.367722532     A.U. after   12 cycles
 SCF Done:  E(RB3LYP) =  -400.370625108     A.U. after   11 cycles
 SCF Done:  E(RB3LYP) =  -400.371339989     A.U. after   11 cycles
 SCF Done:  E(RB3LYP) =  -400.371682890     A.U. after   11 cycles
 SCF Done:  E(RB3LYP) =  -400.372708535     A.U. after   12 cycles
 SCF Done:  E(RB3LYP) =  -400.372220877     A.U. after   12 cycles
 SCF Done:  E(RB3LYP) =  -400.371391172     A.U. after   11 cycles
 SCF Done:  E(RB3LYP) =  -400.370738188     A.U. after   11 cycles
 SCF Done:  E(RB3LYP) =  -400.372843176     A.U. after    8 cycles
 SCF Done:  E(RB3LYP) =  -400.375593313     A.U. after   10 cycles
 SCF Done:  E(RB3LYP) =  -400.376350215     A.U. after   10 cycles
 SCF Done:  E(RB3LYP) =  -400.376643517     A.U. after   10 cycles
 SCF Done:  E(RB3LYP) =  -400.376830384     A.U. after   10 cycles
 SCF Done:  E(RB3LYP) =  -400.376888244     A.U. after    9 cycles
 SCF Done:  E(RB3LYP) =  -400.376933567     A.U. after    9 cycles
 SCF Done:  E(RB3LYP) =  -400.376937695     A.U. after    9 cycles
 SCF Done:  E(RB3LYP) =  -400.376939284     A.U. after    8 cycles
 SCF Done:  E(RB3LYP) =  -400.376939478     A.U. after    7 cycles
 Optimization completed.
    -- Stationary point found.
 Normal termination of Gaussian 16 at Tue Jun  1 08:44:02 2021.

 ----------------------------------------------------------------------
 #N Geom=AllCheck Guess=TCheck SCRF=Check GenChk RB3LYP/6-31G(2df,p) Fr
 eq
 ----------------------------------------------------------------------

 Structure from the checkpoint file:  "NCNpNpCNF.chk"
 -------------------
 Title Card Required
 -------------------
 Charge =  0 Multiplicity = 1

                         Standard orientation:
 ---------------------------------------------------------------------
 Center     Atomic      Atomic             Coordinates (Angstroms)
 Number     Number       Type             X           Y           Z
 ---------------------------------------------------------------------
      1          7           0       -2.820810   -0.112842   -0.362135
      2          6           0       -1.658274   -0.674757    0.309364
      3          7           0       -0.475165    0.049708   -0.129203
      4          7           0       -0.478443    1.431546    0.231052
      5          6           0        0.781913   -0.542884    0.264582
      6          7           0        1.814144   -0.010345   -0.635472
      7          9           0        3.034912   -0.162707    0.086718
      8          1           0       -3.676371   -0.433301    0.077539
      9          1           0       -2.839544   -0.413001   -1.331751
     10          1           0       -1.478343   -1.741074    0.101940
     11          1           0       -1.823724   -0.570006    1.399579
     12          1           0       -0.715458    1.522080    1.227331
     13          1           0       -1.254142    1.847830   -0.276581
     14          1           0        0.721787   -1.627750    0.137801
     15          1           0        1.053304   -0.324943    1.315518
     16          1           0        1.678370    1.003911   -0.605202
 ---------------------------------------------------------------------

 SCF Done:  E(RB3LYP) =  -400.376939478     A.U. after    1 cycles

 The electronic state is 1-A.
 Alpha  occ. eigenvalues --  -24.66735 -14.37993 -14.35681 -14.34479 -14.32556
 Alpha  occ. eigenvalues --  -10.24558 -10.23532  -1.17406  -0.99274  -0.89074
 Alpha  occ. eigenvalues --   -0.85188  -0.78124  -0.66755  -0.61395  -0.53450
 Alpha  occ. eigenvalues --   -0.50956  -0.50185  -0.48456  -0.46317  -0.46008
 Alpha  occ. eigenvalues --   -0.43067  -0.41452  -0.39762  -0.37672  -0.33923
 Alpha  occ. eigenvalues --   -0.27709  -0.25984  -0.24288  -0.23363
 Alpha virt. eigenvalues --    0.06196   0.07212   0.09301   0.11454   0.11753
 Alpha virt. eigenvalues --    0.13886   0.14551   0.16226   0.17765   0.18475
 Alpha virt. eigenvalues --    0.18955   0.21180   0.23476   0.26383   0.28082

 Mulliken charges:
               1
     1  N   -0.504006
     2  C   -0.098161
     3  N   -0.073158
     4  N   -0.468554
     5  C   -0.048490
     6  N   -0.173036
     7  F   -0.208582
     8  H    0.233316
     9  H    0.236453
    10  H    0.096431
    11  H    0.080751
    12  H    0.214284
    13  H    0.257044
    14  H    0.113975
    15  H    0.084223
    16  H    0.257507
 Sum of Mulliken charges =  -0.00000

 Dipole moment (field-independent basis, Debye):
    X=             -4.1119    Y=             -0.5869    Z=              1.3305  Tot=              4.3615
 Quadrupole moment (field-independent basis, Debye-Ang):
   XX=            -43.7518   YY=            -40.0089   ZZ=            -41.4558
   XY=              3.4539   XZ=              1.2174   YZ=              0.1560

  Exact polarizability:  69.459  -0.137  52.529   0.788  -0.538  47.982
 Approx polarizability:  86.095  -1.683  75.741   1.827  -0.913  73.204

                      1                      2                      3
                      A                      A                      A
 Frequencies --     71.4636                99.8971               159.7728
 Red. masses --      4.2621                 5.1708                 2.2399
 Frc consts  --      0.0128                 0.0304                 0.0337
 IR Inten    --      1.2638                 2.4175                 3.1147

                      4                      5                      6
                      A                      A                      A
 Frequencies --    213.6840               268.8881               306.7147
 Red. masses --      3.9146                 1.1551                 1.3406
 Frc consts  --      0.1053                 0.0492                 0.0743
 IR Inten    --      3.7422                33.2923                23.5047

                      7                      8                      9
                      A                      A                      A
 Frequencies --    347.4786               373.1261               416.7129
 Red. masses --      2.3015                 5.1227                 2.1721
 Frc consts  --      0.1637                 0.4202                 0.2222
 IR Inten    --     12.2276                 3.5887                 0.5276

                     10                     11                     12
                      A                      A                      A
 Frequencies --    438.2228               605.6589               825.1550
 Red. masses --      3.3773                 3.1324                 2.0157
 Frc consts  --      0.3821                 0.6770                 0.8086
 IR Inten    --      7.6060                39.6911                41.6786

                     13                     14                     15
                      A                      A                      A
 Frequencies --    867.4087               910.5455               998.3200
 Red. masses --      1.9209                 3.0698                 1.8787
 Frc consts  --      0.8515                 1.4996                 1.1032
 IR Inten    --    107.1891                78.1430                39.1790

                     16                     17                     18
                      A                      A                      A
 Frequencies --   1018.1230              1030.3564              1078.4940
 Red. masses --      2.4603                 1.4571                 3.1175
 Frc consts  --      1.5026                 0.9114                 2.1364
 IR Inten    --     31.5256                40.3037                 8.5448

                     19                     20                     21
                      A                      A                      A
 Frequencies --   1082.7662              1127.2969              1195.4432
 Red. masses --      2.3105                 2.1606                 1.3544
 Frc consts  --      1.5959                 1.6177                 1.1404
 IR Inten    --     30.9276                77.2206                15.8839

                     22                     23                     24
                      A                      A                      A
 Frequencies --   1247.8377              1272.6269              1291.6715
 Red. masses --      1.7920                 1.7485                 1.3090
 Frc consts  --      1.6440                 1.6684                 1.2867
 IR Inten    --     15.9643                20.7633                12.0518

                     25                     26                     27
                      A                      A                      A
 Frequencies --   1351.3003              1365.6220              1390.8791
 Red. masses --      1.3678                 1.2380                 1.3703
 Frc consts  --      1.4715                 1.3603                 1.5618
 IR Inten    --      9.1765                 9.7954                 6.7428

                     28                     29                     30
                      A                      A                      A
 Frequencies --   1444.7663              1471.3419              1502.6817
 Red. masses --      1.3298                 1.1507                 1.0888
 Frc consts  --      1.6354                 1.4677                 1.4485
 IR Inten    --     70.8086                25.3591                 0.2330

                     31                     32                     33
                      A                      A                      A
 Frequencies --   1518.9383              1646.9237              1677.1571
 Red. masses --      1.0973                 1.0992                 1.0830
 Frc consts  --      1.4916                 1.7566                 1.7948
 IR Inten    --      1.6542                27.5873                20.7503

                     34                     35                     36
                      A                      A                      A
 Frequencies --   2909.4491              2919.4890              2986.7624
 Red. masses --      1.0679                 1.0701                 1.0918
 Frc consts  --      5.3258                 5.3741                 5.7382
 IR Inten    --     19.5051               124.9772                54.9729

                     37                     38                     39
                      A                      A                      A
 Frequencies --   3079.8464              3331.9620              3429.4152
 Red. masses --      1.0893                 1.0601                 1.0745
 Frc consts  --      6.0877                 6.9343                 7.4455
 IR Inten    --     31.5613                18.7044                 8.5557

                     40                     41                     42
                      A                      A                      A
 Frequencies --   3506.3455              3542.1181              3594.3580
 Red. masses --      1.0494                 1.0789                 1.0930
 Frc consts  --      7.6015                 7.9757                 8.3196
 IR Inten    --      0.5009                10.0119                 2.5042

 - Thermochemistry -
 -------------------
 Temperature   298.150 Kelvin.  Pressure   1.00000 Atm.
 Atom     1 has atomic number  7 and mass  14.00307

 Molecular mass:   108.08112 amu.
 Principal axes and moments of inertia in atomic units:
                           1         2         3
     Eigenvalues --   249.119421535.600991655.65731
           X            0.99995   0.01019   0.00056
           Y           -0.01019   0.99989  -0.01051
           Z           -0.00067   0.01050   0.99994
 This molecule is an asymmetric top.
 Rotational symmetry number  1.
 Rotational temperatures (Kelvin)      0.34768     0.05640     0.05231
 Rotational constants (GHZ):           7.24448     1.17527     1.09005
 Zero-point vibrational energy     358383.4 (Joules/Mol)
                                   85.65568 (Kcal/Mol)
 Warning -- explicit consideration of  11 degrees of freedom as
           vibrations may cause significant error
 Vibrational temperatures:    102.82   143.73   229.88   307.44   386.87
          (Kelvin)            441.29   499.94   536.85   599.56   630.50
                              871.41  1187.21  1248.01  1310.07  1436.36
                             1464.85  1482.45  1551.71  1557.86  1621.93
                             1719.98  1795.36  1831.03  1858.43  1944.22
                             1964.83  2001.16  2078.70  2116.93  2162.02
                             2185.41  2369.56  2413.06  4186.05  4200.49
                             4297.28  4431.21  4793.95  4934.16  5044.85
                             5096.32  5171.48

 Zero-point correction=                           0.136501 (Hartree/Particle)
 Thermal correction to Energy=                    0.144794
 Thermal correction to Enthalpy=                  0.145738
 Thermal correction to Gibbs Free Energy=         0.103631
 Sum of electronic and zero-point Energies=           -400.240438
 Sum of electronic and thermal Energies=              -400.232146
 Sum of electronic and thermal Enthalpies=            -400.231202
 Sum of electronic and thermal Free Energies=         -400.273308

                     E (Thermal)             CV                S
                      KCal/Mol        Cal/Mol-Kelvin    Cal/Mol-Kelvin
 Total                   90.859             28.959             88.620
 Electronic               0.000              0.000              0.000
 Translational            0.889              2.981             39.950
 Rotational               0.889              2.981             27.940
 Vibrational             89.082             22.997             20.731
 Vibration     1          0.598              1.968              4.113
 Vibration     2          0.604              1.949              3.456
 Vibration     3          0.622              1.892              2.552
 Vibration     4          0.644              1.820              2.012
 Vibration     5          0.673              1.730              1.603
 Vibration     6          0.697              1.661              1.380
 Vibration     7          0.725              1.580              1.178
 Vibration     8          0.745              1.527              1.067
 Vibration     9          0.780              1.434              0.903
 Vibration    10          0.798              1.387              0.832
 Vibration    11          0.964              1.020              0.440

 Optimization completed.
    -- Stationary point found.
 Normal termination of Gaussian 16 at Tue Jun  1 09:01:38 2021.
