 Gaussian 16, Revision A.03,
 Gaussian 16:  ES64L-G16RevA.03 25-Dec-2016

 -----------------------------
 # opt freq b3lyp/6-31g(2df,p)
 -----------------------------

 -------------------
 Title Card Required
 -------------------
 Symbolic Z-matrix:
 Charge =  0 Multiplicity = 1

 SCF Done:  E(RB3LYP) =  -378.560517634     A.U. after   12 cycles
 SCF Done:  E(RB3LYP) =  -378.575449971     A.U. after   11 cycles
 SCF Done:  E(RB3LYP) =  -378.577620841     A.U. after   11 cycles
 SCF Done:  E(RB3LYP) =  -378.578198820     A.U. after   10 cycles
 SCF Done:  E(RB3LYP) =  -378.578339167     A.U. after    9 cycles
 SCF Done:  E(RB3LYP) =  -378.578404082     A.U. after    9 cycles
 SCF Done:  E(RB3LYP) =  -378.578475355     A.U. after   10 cycles
 SCF Done:  E(RB3LYP) =  -378.578475662     A.U. after   10 cycles
 SCF Done:  E(RB3LYP) =  -378.578665059     A.U. after   10 cycles
 SCF Done:  E(RB3LYP) =  -378.560273216     A.U. after   12 cycles
 SCF Done:  E(RB3LYP) =  -378.594914732     A.U. after   10 cycles
 SCF Done:  E(RB3LYP) =  -378.594987377     A.U. after   10 cycles
 SCF Done:  E(RB3LYP) =  -378.595019025     A.U. after    9 cycles
 SCF Done:  E(RB3LYP) =  -378.595031671     A.U. after    9 cycles
 SCF Done:  E(RB3LYP) =  -378.595035700     A.U. after    8 cycles
 SCF Done:  E(RB3LYP) =  -378.595042013     A.U. after    9 cycles
 SCF Done:  E(RB3LYP) =  -378.595043575     A.U. after    8 cycles
 SCF Done:  E(RB3LYP) =  -378.595043834     A.U. after    7 cycles
 SCF Done:  E(RB3LYP) =  -378.595043878     A.U. after    6 cycles
 Optimization completed.
    -- Stationary point found.
 Normal termination of Gaussian 16 at Tue Jun  1 04:15:14 2021.

 ----------------------------------------------------------------------
 #N Geom=AllCheck Guess=TCheck SCRF=Check GenChk RB3LYP/6-31G(2df,p) Fr
 eq
 ----------------------------------------------------------------------

 Structure from the checkpoint file:  "NCNpNpC1CCN1.chk"
 -------------------
 Title Card Required
 -------------------
 Charge =  0 Multiplicity = 1

                         Standard orientation:
 ---------------------------------------------------------------------
 Center     Atomic      Atomic             Coordinates (Angstroms)
 Number     Number       Type             X           Y           Z
 ---------------------------------------------------------------------
      1          7           0        2.977789   -0.074056    0.056000
      2          6           0        1.676698   -0.730341    0.044904
      3          7           0        0.646623    0.249861    0.378200
      4          7           0        0.619616    1.280524   -0.662662
      5          6           0       -0.656304   -0.368191    0.498826
      6          6           0       -1.863315    0.533756    0.842090
      7          6           0       -2.597845   -0.179387   -0.319417
      8          7           0       -1.337743   -0.863235   -0.749989
      9          1           0        3.688886   -0.689757   -0.322340
     10          1           0        3.241744    0.162767    1.007482
     11          1           0        1.568048   -1.550765    0.768816
     12          1           0        1.537892   -1.155721   -0.964626
     13          1           0        1.589161    1.320339   -0.980916
     14          1           0        0.498887    2.158906   -0.160981
     15          1           0       -0.535431   -1.193615    1.210456
     16          1           0       -1.670531    1.587517    0.630725
     17          1           0       -2.279877    0.442767    1.848711
     18          1           0       -3.052413    0.466928   -1.075899
     19          1           0       -3.349858   -0.905237    0.008685
     20          1           0       -0.935907   -0.330820   -1.519368
 ---------------------------------------------------------------------

 SCF Done:  E(RB3LYP) =  -378.595043878     A.U. after    1 cycles

 The electronic state is 1-A.
 Alpha  occ. eigenvalues --  -14.34122 -14.32914 -14.32032 -14.28748 -10.23305
 Alpha  occ. eigenvalues --  -10.22119 -10.19302 -10.17120  -0.97431  -0.90057
 Alpha  occ. eigenvalues --   -0.87496  -0.78175  -0.70393  -0.66224  -0.60437
 Alpha  occ. eigenvalues --   -0.55408  -0.51907  -0.50449  -0.47738  -0.44645
 Alpha  occ. eigenvalues --   -0.44389  -0.42535  -0.40009  -0.38313  -0.37818
 Alpha  occ. eigenvalues --   -0.36695  -0.32618  -0.30915  -0.30739  -0.25367
 Alpha  occ. eigenvalues --   -0.21390  -0.19389
 Alpha virt. eigenvalues --    0.07506   0.09152   0.11079   0.11816   0.12368
 Alpha virt. eigenvalues --    0.14074   0.14608   0.15634   0.17318   0.17852
 Alpha virt. eigenvalues --    0.19221   0.19681   0.20150   0.21816   0.23646

 Mulliken charges:
               1
     1  N   -0.510649
     2  C   -0.098012
     3  N   -0.109440
     4  N   -0.491740
     5  C    0.146072
     6  C   -0.277333
     7  C   -0.147196
     8  N   -0.355879
     9  H    0.233695
    10  H    0.232136
    11  H    0.098460
    12  H    0.101603
    13  H    0.248325
    14  H    0.239654
    15  H    0.073435
    16  H    0.098909
    17  H    0.093890
    18  H    0.099498
    19  H    0.101007
    20  H    0.223565
 Sum of Mulliken charges =  -0.00000

 Dipole moment (field-independent basis, Debye):
    X=              1.8816    Y=              0.5786    Z=              1.0570  Tot=              2.2344
 Quadrupole moment (field-independent basis, Debye-Ang):
   XX=            -43.1248   YY=            -49.5138   ZZ=            -49.9296
   XY=             -4.3852   XZ=             -0.0533   YZ=             -1.3793

  Exact polarizability:  88.524  -1.046  65.868  -1.305  -1.086  62.923
 Approx polarizability: 107.077  -0.427  98.757  -2.317  -1.706  96.269

                      1                      2                      3
                      A                      A                      A
 Frequencies --     59.7243                91.0448               137.0670
 Red. masses --      2.1027                 3.5366                 2.1950
 Frc consts  --      0.0044                 0.0173                 0.0243
 IR Inten    --      1.1814                 2.5611                 7.2981

                      4                      5                      6
                      A                      A                      A
 Frequencies --    179.2028               222.0455               288.1914
 Red. masses --      1.4661                 2.1134                 2.0571
 Frc consts  --      0.0277                 0.0614                 0.1007
 IR Inten    --     12.8591                 3.1494                16.1064

                      7                      8                      9
                      A                      A                      A
 Frequencies --    308.7897               367.3894               409.9088
 Red. masses --      1.6946                 1.9997                 3.6352
 Frc consts  --      0.0952                 0.1590                 0.3599
 IR Inten    --     25.6988                14.2239                 9.1440

                     10                     11                     12
                      A                      A                      A
 Frequencies --    480.2899               631.9830               697.1246
 Red. masses --      2.8660                 2.4273                 2.2791
 Frc consts  --      0.3895                 0.5712                 0.6526
 IR Inten    --      7.2411                19.6237                24.4205

                     13                     14                     15
                      A                      A                      A
 Frequencies --    780.9745               834.6468               850.3685
 Red. masses --      2.0058                 1.6369                 1.4469
 Frc consts  --      0.7208                 0.6719                 0.6165
 IR Inten    --     15.2853                47.4744                62.3544

                     16                     17                     18
                      A                      A                      A
 Frequencies --    868.5193               905.3940               957.8276
 Red. masses --      1.9755                 2.4199                 2.5457
 Frc consts  --      0.8780                 1.1687                 1.3760
 IR Inten    --     97.1818                 7.6471                 3.8663

                     19                     20                     21
                      A                      A                      A
 Frequencies --    974.8827               990.1237              1001.7219
 Red. masses --      2.2475                 3.2935                 2.2824
 Frc consts  --      1.2585                 1.9023                 1.3494
 IR Inten    --     15.3962                39.1434                16.8398

                     22                     23                     24
                      A                      A                      A
 Frequencies --   1072.4913              1094.1521              1110.3445
 Red. masses --      1.8972                 1.8118                 2.6990
 Frc consts  --      1.2857                 1.2779                 1.9605
 IR Inten    --      3.2738                42.8034                72.2325

                     25                     26                     27
                      A                      A                      A
 Frequencies --   1148.6663              1183.2321              1218.4993
 Red. masses --      1.6563                 1.6774                 1.3852
 Frc consts  --      1.2876                 1.3836                 1.2117
 IR Inten    --     23.7290                16.4765                23.8249

                     28                     29                     30
                      A                      A                      A
 Frequencies --   1227.2035              1240.3651              1264.0626
 Red. masses --      1.4151                 1.4568                 1.4421
 Frc consts  --      1.2556                 1.3205                 1.3577
 IR Inten    --     13.5961                 7.3134                 2.6424

                     31                     32                     33
                      A                      A                      A
 Frequencies --   1282.5448              1316.8700              1327.8618
 Red. masses --      1.2663                 1.2709                 1.3539
 Frc consts  --      1.2272                 1.2985                 1.4065
 IR Inten    --      2.7430                 2.9732                12.1208

                     34                     35                     36
                      A                      A                      A
 Frequencies --   1369.6492              1400.6116              1435.7300
 Red. masses --      1.2544                 1.3198                 1.3370
 Frc consts  --      1.3865                 1.5255                 1.6238
 IR Inten    --      1.8463                 9.7570                87.3607

                     37                     38                     39
                      A                      A                      A
 Frequencies --   1453.2183              1479.6291              1511.1656
 Red. masses --      1.2811                 1.1339                 1.0840
 Frc consts  --      1.5940                 1.4626                 1.4586
 IR Inten    --      1.2350                 7.6018                 0.9000

                     40                     41                     42
                      A                      A                      A
 Frequencies --   1516.5212              1640.4511              1683.3212
 Red. masses --      1.1207                 1.0992                 1.0660
 Frc consts  --      1.5185                 1.7428                 1.7797
 IR Inten    --      0.3701                29.6130                32.2405

                     43                     44                     45
                      A                      A                      A
 Frequencies --   2950.7328              3003.5394              3029.6248
 Red. masses --      1.0635                 1.0963                 1.0815
 Frc consts  --      5.4556                 5.8269                 5.8487
 IR Inten    --     57.3741                31.1310                70.2968

                     46                     47                     48
                      A                      A                      A
 Frequencies --   3036.2818              3062.6588              3079.5373
 Red. masses --      1.0627                 1.0605                 1.1078
 Frc consts  --      5.7723                 5.8608                 6.1901
 IR Inten    --     63.5402                44.0968                19.8870

                     49                     50                     51
                      A                      A                      A
 Frequencies --   3121.7586              3437.8749              3489.1945
 Red. masses --      1.1064                 1.0506                 1.0727
 Frc consts  --      6.3529                 7.3158                 7.6948
 IR Inten    --     39.4330                19.2546                 6.5770

                     52                     53                     54
                      A                      A                      A
 Frequencies --   3502.0604              3504.2376              3593.6274
 Red. masses --      1.0656                 1.0736                 1.0929
 Frc consts  --      7.7000                 7.7677                 8.3153
 IR Inten    --      6.1118                 7.3825                 2.2430

 - Thermochemistry -
 -------------------
 Temperature   298.150 Kelvin.  Pressure   1.00000 Atm.
 Atom     1 has atomic number  7 and mass  14.00307

 Molecular mass:   116.10620 amu.
 Principal axes and moments of inertia in atomic units:
                           1         2         3
     Eigenvalues --   369.493561518.396331593.34233
           X            0.99991  -0.01297  -0.00259
           Y            0.01284   0.99890  -0.04503
           Z            0.00317   0.04500   0.99898
 This molecule is an asymmetric top.
 Rotational symmetry number  1.
 Rotational temperatures (Kelvin)      0.23441     0.05704     0.05436
 Rotational constants (GHZ):           4.88436     1.18858     1.13268
 Zero-point vibrational energy     471477.8 (Joules/Mol)
                                  112.68591 (Kcal/Mol)
 Warning -- explicit consideration of  10 degrees of freedom as
           vibrations may cause significant error
 Vibrational temperatures:     85.93   130.99   197.21   257.83   319.47
          (Kelvin)            414.64   444.28   528.59   589.77   691.03
                              909.28  1003.01  1123.65  1200.87  1223.49
                             1249.61  1302.66  1378.10  1402.64  1424.57
                             1441.25  1543.08  1574.24  1597.54  1652.67
                             1702.41  1753.15  1765.67  1784.61  1818.70
                             1845.30  1894.68  1910.50  1970.62  2015.17
                             2065.70  2090.86  2128.86  2174.23  2181.94
                             2360.24  2421.92  4245.45  4321.42  4358.95
                             4368.53  4406.48  4430.77  4491.51  4946.34
                             5020.17  5038.68  5041.82  5170.43

 Zero-point correction=                           0.179576 (Hartree/Particle)
 Thermal correction to Energy=                    0.188490
 Thermal correction to Enthalpy=                  0.189434
 Thermal correction to Gibbs Free Energy=         0.145789
 Sum of electronic and zero-point Energies=           -378.415467
 Sum of electronic and thermal Energies=              -378.406554
 Sum of electronic and thermal Enthalpies=            -378.405610
 Sum of electronic and thermal Free Energies=         -378.449255

                     E (Thermal)             CV                S
                      KCal/Mol        Cal/Mol-Kelvin    Cal/Mol-Kelvin
 Total                  118.279             32.588             91.859
 Electronic               0.000              0.000              0.000
 Translational            0.889              2.981             40.163
 Rotational               0.889              2.981             28.282
 Vibrational            116.502             26.626             23.413
 Vibration     1          0.597              1.974              4.466
 Vibration     2          0.602              1.956              3.637
 Vibration     3          0.614              1.916              2.844
 Vibration     4          0.629              1.868              2.337
 Vibration     5          0.648              1.808              1.942
 Vibration     6          0.685              1.696              1.485
 Vibration     7          0.698              1.657              1.369
 Vibration     8          0.740              1.539              1.091
 Vibration     9          0.774              1.449              0.927
 Vibration    10          0.837              1.294              0.709

 Optimization completed.
    -- Stationary point found.
 Normal termination of Gaussian 16 at Tue Jun  1 04:41:36 2021.
