 Gaussian 16, Revision A.03,
 Gaussian 16:  ES64L-G16RevA.03 25-Dec-2016

 -----------------------------
 # opt freq b3lyp/6-31g(2df,p)
 -----------------------------

 -------------------
 Title Card Required
 -------------------
 Symbolic Z-matrix:
 Charge =  0 Multiplicity = 1

 SCF Done:  E(RB3LYP) =  -451.166414887     A.U. after   12 cycles
 SCF Done:  E(RB3LYP) =  -451.177602057     A.U. after   11 cycles
 SCF Done:  E(RB3LYP) =  -451.181031550     A.U. after   11 cycles
 SCF Done:  E(RB3LYP) =  -451.181672038     A.U. after   11 cycles
 SCF Done:  E(RB3LYP) =  -451.181842842     A.U. after    9 cycles
 SCF Done:  E(RB3LYP) =  -451.181928492     A.U. after   10 cycles
 SCF Done:  E(RB3LYP) =  -451.181955182     A.U. after    9 cycles
 SCF Done:  E(RB3LYP) =  -451.182000316     A.U. after   10 cycles
 SCF Done:  E(RB3LYP) =  -451.182061473     A.U. after   10 cycles
 SCF Done:  E(RB3LYP) =  -451.182107859     A.U. after   11 cycles
 SCF Done:  E(RB3LYP) =  -451.190882687     A.U. after   11 cycles
 SCF Done:  E(RB3LYP) =  -451.189097317     A.U. after   11 cycles
 SCF Done:  E(RB3LYP) =  -451.191516983     A.U. after   11 cycles
 SCF Done:  E(RB3LYP) =  -451.190960954     A.U. after   11 cycles
 SCF Done:  E(RB3LYP) =  -451.191927062     A.U. after   10 cycles
 SCF Done:  E(RB3LYP) =  -451.191956785     A.U. after    9 cycles
 SCF Done:  E(RB3LYP) =  -451.191964366     A.U. after    9 cycles
 SCF Done:  E(RB3LYP) =  -451.191965467     A.U. after    7 cycles
 SCF Done:  E(RB3LYP) =  -451.191965575     A.U. after    7 cycles
 Optimization completed.
    -- Stationary point found.
 Normal termination of Gaussian 16 at Tue Jun  1 01:36:18 2021.

 ----------------------------------------------------------------------
 #N Geom=AllCheck Guess=TCheck SCRF=Check GenChk RB3LYP/6-31G(2df,p) Fr
 eq
 ----------------------------------------------------------------------

 Structure from the checkpoint file:  "NCNpNpCNCNN.chk"
 -------------------
 Title Card Required
 -------------------
 Charge =  0 Multiplicity = 1

                         Standard orientation:
 ---------------------------------------------------------------------
 Center     Atomic      Atomic             Coordinates (Angstroms)
 Number     Number       Type             X           Y           Z
 ---------------------------------------------------------------------
      1          7           0       -3.758976   -0.612663   -0.332803
      2          6           0       -2.485063   -0.862290    0.330133
      3          7           0       -1.510377    0.098883   -0.158246
      4          7           0       -1.840819    1.449202    0.176687
      5          6           0       -0.153249   -0.178394    0.270637
      6          7           0        0.775904    0.644787   -0.488821
      7          6           0        2.113977    0.671951    0.052133
      8          7           0        2.777138   -0.590897   -0.263710
      9          7           0        4.152156   -0.642756    0.107042
     10          1           0       -4.501977   -1.133197    0.120648
     11          1           0       -3.708844   -0.926301   -1.297265
     12          1           0       -2.066115   -1.865304    0.152608
     13          1           0       -2.655687   -0.761117    1.420964
     14          1           0       -2.073974    1.499659    1.178018
     15          1           0       -2.707708    1.648284   -0.315000
     16          1           0        0.059275   -1.235447    0.086971
     17          1           0       -0.039456   -0.010892    1.370382
     18          1           0        0.382396    1.579337   -0.531830
     19          1           0        2.152385    0.784587    1.154303
     20          1           0        2.639183    1.544510   -0.381124
     21          1           0        2.721426   -0.736574   -1.267090
     22          1           0        4.192627   -0.881268    1.094004
     23          1           0        4.587297    0.280230    0.015946
 ---------------------------------------------------------------------

 SCF Done:  E(RB3LYP) =  -451.191965575     A.U. after    1 cycles

 The electronic state is 1-A.
 Alpha  occ. eigenvalues --  -14.34139 -14.33300 -14.32647 -14.32438 -14.31690
 Alpha  occ. eigenvalues --  -14.30126 -10.23369 -10.22074 -10.22005  -0.98085
 Alpha  occ. eigenvalues --   -0.95216  -0.89078  -0.87394  -0.78462  -0.74818
 Alpha  occ. eigenvalues --   -0.67078  -0.61483  -0.59734  -0.52278  -0.50187
 Alpha  occ. eigenvalues --   -0.49174  -0.48218  -0.47237  -0.46241  -0.44418
 Alpha  occ. eigenvalues --   -0.43206  -0.41523  -0.40185  -0.39156  -0.37433
 Alpha  occ. eigenvalues --   -0.36026  -0.26471  -0.25063  -0.24372  -0.22402
 Alpha  occ. eigenvalues --   -0.22290  -0.21607
 Alpha virt. eigenvalues --    0.07510   0.08822   0.09702   0.11097   0.12570
 Alpha virt. eigenvalues --    0.12967   0.13383   0.14897   0.15991   0.16992
 Alpha virt. eigenvalues --    0.18139   0.18350   0.19469   0.19812   0.21359

 Mulliken charges:
               1
     1  N   -0.506934
     2  C   -0.092581
     3  N   -0.075392
     4  N   -0.468717
     5  C   -0.050662
     6  N   -0.300894
     7  C   -0.089214
     8  N   -0.257804
     9  N   -0.466426
    10  H    0.229698
    11  H    0.233449
    12  H    0.092358
    13  H    0.073591
    14  H    0.206606
    15  H    0.252956
    16  H    0.115652
    17  H    0.047592
    18  H    0.233261
    19  H    0.071248
    20  H    0.070959
    21  H    0.229212
    22  H    0.239061
    23  H    0.212980
 Sum of Mulliken charges =  -0.00000

 Dipole moment (field-independent basis, Debye):
    X=             -1.9576    Y=              0.1425    Z=              1.5489  Tot=              2.5003
 Quadrupole moment (field-independent basis, Debye-Ang):
   XX=            -50.2934   YY=            -55.9639   ZZ=            -54.1495
   XY=             10.2611   XZ=              1.8054   YZ=              0.6460

  Exact polarizability: 105.614   1.689  74.025   1.910  -0.411  68.752
 Approx polarizability: 119.847   0.176 108.670   2.575  -0.959 107.658

                      1                      2                      3
                      A                      A                      A
 Frequencies --     39.4993                68.3549                83.6706
 Red. masses --      3.5574                 4.1096                 2.6151
 Frc consts  --      0.0033                 0.0113                 0.0108
 IR Inten    --      1.2719                 5.1279                 5.2435

                      4                      5                      6
                      A                      A                      A
 Frequencies --    131.0115               167.2131               199.6741
 Red. masses --      2.4572                 2.6262                 3.6400
 Frc consts  --      0.0248                 0.0433                 0.0855
 IR Inten    --      2.1130                 0.9825                 2.8281

                      7                      8                      9
                      A                      A                      A
 Frequencies --    267.9319               297.7074               311.6744
 Red. masses --      1.1856                 1.2805                 2.4325
 Frc consts  --      0.0501                 0.0669                 0.1392
 IR Inten    --     21.0508                34.9909                19.2903

                     10                     11                     12
                      A                      A                      A
 Frequencies --    321.1291               334.6439               363.2699
 Red. masses --      2.1116                 2.5685                 1.2615
 Frc consts  --      0.1283                 0.1695                 0.0981
 IR Inten    --      1.0170                 3.5502                25.6098

                     13                     14                     15
                      A                      A                      A
 Frequencies --    417.1535               431.8908               536.1872
 Red. masses --      2.3232                 2.9076                 3.7705
 Frc consts  --      0.2382                 0.3195                 0.6387
 IR Inten    --      1.7125                 2.1316                 7.9139

                     16                     17                     18
                      A                      A                      A
 Frequencies --    634.3326               782.2732               822.8326
 Red. masses --      2.8972                 1.5494                 1.9552
 Frc consts  --      0.6869                 0.5586                 0.7800
 IR Inten    --     31.3819               100.4041                82.7306

                     19                     20                     21
                      A                      A                      A
 Frequencies --    840.9457               873.1458               959.7995
 Red. masses --      1.5654                 1.9080                 1.3652
 Frc consts  --      0.6522                 0.8571                 0.7410
 IR Inten    --     57.1215                89.8467                77.5451

                     22                     23                     24
                      A                      A                      A
 Frequencies --    995.5951              1007.7429              1035.5702
 Red. masses --      2.3711                 1.8339                 1.5725
 Frc consts  --      1.3847                 1.0973                 0.9936
 IR Inten    --      9.5614                31.4940                65.8922

                     25                     26                     27
                      A                      A                      A
 Frequencies --   1044.1549              1082.7414              1115.3268
 Red. masses --      1.7598                 2.4412                 1.9983
 Frc consts  --      1.1304                 1.6861                 1.4646
 IR Inten    --     10.8961                 6.5312                31.4710

                     28                     29                     30
                      A                      A                      A
 Frequencies --   1131.0378              1170.4879              1182.1176
 Red. masses --      2.7014                 2.1302                 1.9986
 Frc consts  --      2.0361                 1.7195                 1.6455
 IR Inten    --     64.8430                 8.8961                40.3074

                     31                     32                     33
                      A                      A                      A
 Frequencies --   1192.2553              1215.7169              1258.5865
 Red. masses --      2.3691                 1.6002                 1.1878
 Frc consts  --      1.9841                 1.3935                 1.1085
 IR Inten    --     26.7815                35.1474                20.8633

                     34                     35                     36
                      A                      A                      A
 Frequencies --   1262.7832              1269.7023              1340.9070
 Red. masses --      1.4242                 1.7089                 1.2600
 Frc consts  --      1.3381                 1.6232                 1.3348
 IR Inten    --     19.5138                18.4960                 7.1344

                     37                     38                     39
                      A                      A                      A
 Frequencies --   1350.6384              1368.2736              1399.0300
 Red. masses --      1.3823                 1.2514                 1.3372
 Frc consts  --      1.4857                 1.3803                 1.5420
 IR Inten    --      6.7577                14.8129                 2.1177

                     40                     41                     42
                      A                      A                      A
 Frequencies --   1405.1074              1447.3015              1484.5673
 Red. masses --      1.3307                 1.3590                 1.1748
 Frc consts  --      1.5479                 1.6773                 1.5254
 IR Inten    --    103.5673                39.2023                51.9498

                     43                     44                     45
                      A                      A                      A
 Frequencies --   1500.7910              1506.0117              1514.9612
 Red. masses --      1.1718                 1.1467                 1.0936
 Frc consts  --      1.5550                 1.5324                 1.4789
 IR Inten    --      2.7855                 2.8706                 4.7729

                     46                     47                     48
                      A                      A                      A
 Frequencies --   1525.4275              1644.8659              1673.1308
 Red. masses --      1.1137                 1.0986                 1.0825
 Frc consts  --      1.5269                 1.7513                 1.7853
 IR Inten    --      1.4327                27.6054                21.9872

                     49                     50                     51
                      A                      A                      A
 Frequencies --   1683.3095              2788.2664              2894.5675
 Red. masses --      1.0667                 1.0718                 1.0590
 Frc consts  --      1.7809                 4.9092                 5.2278
 IR Inten    --     14.4346                92.9283                89.5822

                     52                     53                     54
                      A                      A                      A
 Frequencies --   2901.2023              2924.8621              2982.1320
 Red. masses --      1.0679                 1.0988                 1.0901
 Frc consts  --      5.2960                 5.5382                 5.7117
 IR Inten    --     96.3068                89.4442                57.6629

                     55                     56                     57
                      A                      A                      A
 Frequencies --   3077.9477              3312.3205              3370.4082
 Red. masses --      1.0847                 1.0605                 1.0569
 Frc consts  --      6.0548                 6.8551                 7.0739
 IR Inten    --     24.7951                24.5998                25.1581

                     58                     59                     60
                      A                      A                      A
 Frequencies --   3502.4612              3508.2305              3526.2106
 Red. masses --      1.0494                 1.0768                 1.0809
 Frc consts  --      7.5844                 7.8083                 7.9184
 IR Inten    --      0.2366                 1.6024                 0.1650

                     61                     62                     63
                      A                      A                      A
 Frequencies --   3534.1742              3539.0991              3589.5875
 Red. masses --      1.0734                 1.0781                 1.0927
 Frc consts  --      7.8991                 7.9561                 8.2958
 IR Inten    --     23.3488                10.1023                 1.5882

 - Thermochemistry -
 -------------------
 Temperature   298.150 Kelvin.  Pressure   1.00000 Atm.
 Atom     1 has atomic number  7 and mass  14.00307

 Molecular mass:   134.12799 amu.
 Principal axes and moments of inertia in atomic units:
                           1         2         3
     Eigenvalues --   380.003413212.551803444.39049
           X            0.99994   0.01092   0.00120
           Y           -0.01093   0.99993   0.00427
           Z           -0.00116  -0.00428   0.99999
 This molecule is an asymmetric top.
 Rotational symmetry number  1.
 Rotational temperatures (Kelvin)      0.22793     0.02696     0.02515
 Rotational constants (GHZ):           4.74928     0.56178     0.52397
 Zero-point vibrational energy     545161.9 (Joules/Mol)
                                  130.29682 (Kcal/Mol)
 Warning -- explicit consideration of  15 degrees of freedom as
           vibrations may cause significant error
 Vibrational temperatures:     56.83    98.35   120.38   188.50   240.58
          (Kelvin)            287.29   385.49   428.33   448.43   462.03
                              481.48   522.66   600.19   621.39   771.45
                              912.66  1125.52  1183.87  1209.93  1256.26
                             1380.94  1432.44  1449.92  1489.95  1502.31
                             1557.82  1604.71  1627.31  1684.07  1700.80
                             1715.39  1749.15  1810.83  1816.86  1826.82
                             1929.27  1943.27  1968.64  2012.89  2021.64
                             2082.34  2135.96  2159.30  2166.81  2179.69
                             2194.75  2366.60  2407.26  2421.91  4011.69
                             4164.64  4174.18  4208.22  4290.62  4428.48
                             4765.69  4849.27  5039.26  5047.56  5073.43
                             5084.89  5091.97  5164.62

 Zero-point correction=                           0.207641 (Hartree/Particle)
 Thermal correction to Energy=                    0.218793
 Thermal correction to Enthalpy=                  0.219737
 Thermal correction to Gibbs Free Energy=         0.170400
 Sum of electronic and zero-point Energies=           -450.984324
 Sum of electronic and thermal Energies=              -450.973173
 Sum of electronic and thermal Enthalpies=            -450.972229
 Sum of electronic and thermal Free Energies=         -451.021565

                     E (Thermal)             CV                S
                      KCal/Mol        Cal/Mol-Kelvin    Cal/Mol-Kelvin
 Total                  137.294             39.922            103.837
 Electronic               0.000              0.000              0.000
 Translational            0.889              2.981             40.593
 Rotational               0.889              2.981             29.821
 Vibrational            135.517             33.961             33.423
 Vibration     1          0.594              1.981              5.284
 Vibration     2          0.598              1.969              4.200
 Vibration     3          0.601              1.960              3.803
 Vibration     4          0.612              1.922              2.931
 Vibration     5          0.624              1.883              2.467
 Vibration     6          0.638              1.840              2.136
 Vibration     7          0.673              1.732              1.610
 Vibration     8          0.691              1.678              1.430
 Vibration     9          0.700              1.651              1.353
 Vibration    10          0.707              1.633              1.304
 Vibration    11          0.716              1.606              1.238
 Vibration    12          0.737              1.548              1.108
 Vibration    13          0.780              1.433              0.902
 Vibration    14          0.793              1.401              0.852
 Vibration    15          0.891              1.170              0.574

                           ! Non-Optimized Parameters !
 Normal termination of Gaussian 16 at Tue Jun  1 02:10:07 2021.
