 Gaussian 16, Revision A.03,
 Gaussian 16:  ES64L-G16RevA.03 25-Dec-2016

 -----------------------------
 # opt freq b3lyp/6-31g(2df,p)
 -----------------------------

 -------------------
 Title Card Required
 -------------------
 Symbolic Z-matrix:
 Charge =  0 Multiplicity = 1

 SCF Done:  E(RB3LYP) =  -521.017297469     A.U. after   13 cycles
 SCF Done:  E(RB3LYP) =  -521.022405119     A.U. after   12 cycles
 SCF Done:  E(RB3LYP) =  -521.023074719     A.U. after   12 cycles
 SCF Done:  E(RB3LYP) =  -521.023473534     A.U. after   12 cycles
 SCF Done:  E(RB3LYP) =  -521.024300228     A.U. after   12 cycles
 SCF Done:  E(RB3LYP) =  -521.025280282     A.U. after   12 cycles
 SCF Done:  E(RB3LYP) =  -521.025843634     A.U. after   11 cycles
 SCF Done:  E(RB3LYP) =  -521.026518653     A.U. after   12 cycles
 SCF Done:  E(RB3LYP) =  -521.027075296     A.U. after   11 cycles
 SCF Done:  E(RB3LYP) =  -521.027323304     A.U. after   11 cycles
 SCF Done:  E(RB3LYP) =  -521.027445553     A.U. after   10 cycles
 SCF Done:  E(RB3LYP) =  -521.027534076     A.U. after   11 cycles
 SCF Done:  E(RB3LYP) =  -521.027570204     A.U. after   10 cycles
 SCF Done:  E(RB3LYP) =  -521.027561899     A.U. after    9 cycles
 SCF Done:  E(RB3LYP) =  -521.027574950     A.U. after    9 cycles
 SCF Done:  E(RB3LYP) =  -521.027575330     A.U. after    7 cycles
 SCF Done:  E(RB3LYP) =  -521.027575384     A.U. after    6 cycles
 Optimization completed.
    -- Stationary point found.
 Normal termination of Gaussian 16 at Mon May 31 18:05:43 2021.

 ----------------------------------------------------------------------
 #N Geom=AllCheck Guess=TCheck SCRF=Check GenChk RB3LYP/6-31G(2df,p) Fr
 eq
 ----------------------------------------------------------------------

 Structure from the checkpoint file:  "NCpCdNCFpCCCO.chk"
 -------------------
 Title Card Required
 -------------------
 Charge =  0 Multiplicity = 1

                         Standard orientation:
 ---------------------------------------------------------------------
 Center     Atomic      Atomic             Coordinates (Angstroms)
 Number     Number       Type             X           Y           Z
 ---------------------------------------------------------------------
      1          7           0        0.575549    2.702183   -0.067051
      2          6           0        0.172847    1.310926   -0.331053
      3          6           0        1.136878    0.339157    0.304868
      4          7           0        1.881605   -0.433709   -0.368295
      5          6           0        2.783031   -1.291140    0.353158
      6          9           0        4.030061   -1.208237   -0.208732
      7          6           0       -1.264562    1.098851    0.162485
      8          6           0       -1.865095   -0.255002   -0.229762
      9          6           0       -3.308392   -0.419727    0.248750
     10          8           0       -3.848417   -1.696155   -0.050315
     11          1           0        1.533505    2.847666   -0.374311
     12          1           0        0.563171    2.886829    0.933699
     13          1           0        0.214095    1.153422   -1.413954
     14          1           0        1.182899    0.385367    1.409741
     15          1           0        2.432843   -2.327959    0.259715
     16          1           0        2.870878   -1.030435    1.422285
     17          1           0       -1.870329    1.919017   -0.239323
     18          1           0       -1.286104    1.208280    1.257369
     19          1           0       -1.267704   -1.078769    0.177898
     20          1           0       -1.833858   -0.363561   -1.323355
     21          1           0       -3.934479    0.388413   -0.164248
     22          1           0       -3.353474   -0.330431    1.340258
     23          1           0       -3.862985   -1.792190   -1.007930
 ---------------------------------------------------------------------

 SCF Done:  E(RB3LYP) =  -521.027575384     A.U. after    1 cycles

 The electronic state is 1-A.
 Alpha  occ. eigenvalues --  -24.66878 -19.13491 -14.33241 -14.32515 -10.28023
 Alpha  occ. eigenvalues --  -10.23693 -10.22883 -10.22402 -10.19343 -10.18712
 Alpha  occ. eigenvalues --   -1.18823  -1.01617  -0.93623  -0.89392  -0.79402
 Alpha  occ. eigenvalues --   -0.72899  -0.69082  -0.63235  -0.60296  -0.57742
 Alpha  occ. eigenvalues --   -0.51781  -0.50578  -0.49961  -0.49675  -0.48449
 Alpha  occ. eigenvalues --   -0.46424  -0.45468  -0.42733  -0.41072  -0.40115
 Alpha  occ. eigenvalues --   -0.37087  -0.36465  -0.35212  -0.35084  -0.34478
 Alpha  occ. eigenvalues --   -0.32335  -0.30649  -0.27552  -0.26793  -0.24593
 Alpha virt. eigenvalues --   -0.01839   0.07383   0.07904   0.09676   0.10591
 Alpha virt. eigenvalues --    0.11542   0.12926   0.13090   0.14548   0.15675
 Alpha virt. eigenvalues --    0.16145   0.17143   0.18201   0.18970   0.19422

 Mulliken charges:
               1
     1  N   -0.513660
     2  C   -0.034526
     3  C    0.033525
     4  N   -0.169815
     5  C   -0.027434
     6  F   -0.139337
     7  C   -0.189456
     8  C   -0.202948
     9  C   -0.057240
    10  O   -0.418021
    11  H    0.237635
    12  H    0.225369
    13  H    0.101277
    14  H    0.073864
    15  H    0.109153
    16  H    0.082283
    17  H    0.115660
    18  H    0.090435
    19  H    0.110142
    20  H    0.094639
    21  H    0.087556
    22  H    0.109702
    23  H    0.281198
 Sum of Mulliken charges =  -0.00000

 Dipole moment (field-independent basis, Debye):
    X=             -0.8383    Y=              1.1224    Z=              1.2302  Tot=              1.8644
 Quadrupole moment (field-independent basis, Debye-Ang):
   XX=            -72.3282   YY=            -63.1660   ZZ=            -57.0843
   XY=              0.1289   XZ=              8.9080   YZ=              3.3520

  Exact polarizability:  97.965  -7.229  90.953  -0.188   2.734  74.332
 Approx polarizability: 119.949 -13.082 128.391  -5.221   7.465 119.053

                      1                      2                      3
                      A                      A                      A
 Frequencies --     31.5033                58.2609                62.6935
 Red. masses --      6.1538                 3.7905                 1.6540
 Frc consts  --      0.0036                 0.0076                 0.0038
 IR Inten    --      2.2008                 5.4518                 4.3341

                      4                      5                      6
                      A                      A                      A
 Frequencies --     99.8610               122.9379               142.2514
 Red. masses --      3.9787                 5.3185                 3.6258
 Frc consts  --      0.0234                 0.0474                 0.0432
 IR Inten    --      3.5466                 0.8640                 1.2628

                      7                      8                      9
                      A                      A                      A
 Frequencies --    161.9057               214.9176               263.3701
 Red. masses --      2.2871                 2.7297                 1.6796
 Frc consts  --      0.0353                 0.0743                 0.0686
 IR Inten    --      0.7563                 3.2089                11.5764

                     10                     11                     12
                      A                      A                      A
 Frequencies --    285.6926               305.3213               328.6097
 Red. masses --      1.9137                 1.1704                 2.8088
 Frc consts  --      0.0920                 0.0643                 0.1787
 IR Inten    --     15.3026               122.1429                13.6697

                     13                     14                     15
                      A                      A                      A
 Frequencies --    412.6228               427.5192               506.9554
 Red. masses --      3.4993                 3.4989                 2.7538
 Frc consts  --      0.3510                 0.3768                 0.4170
 IR Inten    --      3.4348                 2.6987                 7.6437

                     16                     17                     18
                      A                      A                      A
 Frequencies --    531.8325               604.8115               753.3103
 Red. masses --      3.5033                 4.4824                 1.1066
 Frc consts  --      0.5838                 0.9660                 0.3700
 IR Inten    --      6.9987                 8.6657                 3.8778

                     19                     20                     21
                      A                      A                      A
 Frequencies --    844.9763               873.7421               947.7060
 Red. masses --      1.3197                 1.5047                 2.2260
 Frc consts  --      0.5552                 0.6768                 1.1779
 IR Inten    --      5.9089               212.0135                 5.1414

                     22                     23                     24
                      A                      A                      A
 Frequencies --    976.2493              1009.3888              1030.2247
 Red. masses --      1.7349                 2.0917                 2.4757
 Frc consts  --      0.9742                 1.2557                 1.5481
 IR Inten    --     11.3172                 7.9268                27.6882

                     25                     26                     27
                      A                      A                      A
 Frequencies --   1046.6610              1065.5012              1082.6492
 Red. masses --      3.1238                 3.2618                 3.8547
 Frc consts  --      2.0162                 2.1818                 2.6620
 IR Inten    --     10.4979                27.8797                98.5566

                     28                     29                     30
                      A                      A                      A
 Frequencies --   1108.2310              1118.4877              1124.8850
 Red. masses --      4.8916                 2.6534                 1.8206
 Frc consts  --      3.5396                 1.9558                 1.3573
 IR Inten    --    106.5498                46.8360                10.1197

                     31                     32                     33
                      A                      A                      A
 Frequencies --   1135.9728              1166.0635              1231.8321
 Red. masses --      1.2238                 1.8800                 1.5768
 Frc consts  --      0.9304                 1.5061                 1.4097
 IR Inten    --      8.1435                 7.3212                 2.6698

                     34                     35                     36
                      A                      A                      A
 Frequencies --   1269.8779              1273.2804              1290.1176
 Red. masses --      1.0881                 1.3073                 1.3707
 Frc consts  --      1.0338                 1.2487                 1.3442
 IR Inten    --      4.1831                 6.8741                14.1004

                     37                     38                     39
                      A                      A                      A
 Frequencies --   1320.6212              1336.6147              1368.5494
 Red. masses --      1.0969                 1.2485                 1.3269
 Frc consts  --      1.1272                 1.3142                 1.4643
 IR Inten    --      4.0431                13.0013                 2.4720

                     40                     41                     42
                      A                      A                      A
 Frequencies --   1390.1241              1399.2436              1404.1691
 Red. masses --      1.3188                 1.3187                 1.3968
 Frc consts  --      1.5015                 1.5212                 1.6226
 IR Inten    --      1.3716                 0.4329                 9.2418

                     43                     44                     45
                      A                      A                      A
 Frequencies --   1424.6609              1445.2809              1484.5036
 Red. masses --      1.2947                 1.2702                 1.0777
 Frc consts  --      1.5483                 1.5632                 1.3993
 IR Inten    --     51.9056                80.4550                 0.2336

                     46                     47                     48
                      A                      A                      A
 Frequencies --   1494.7964              1510.1250              1515.8623
 Red. masses --      1.0912                 1.0906                 1.0945
 Frc consts  --      1.4365                 1.4653                 1.4818
 IR Inten    --      0.9090                 1.1643                 0.5610

                     49                     50                     51
                      A                      A                      A
 Frequencies --   1655.3085              1751.1569              2934.1718
 Red. masses --      1.0930                 8.6892                 1.0830
 Frc consts  --      1.7646                15.6993                 5.4934
 IR Inten    --     23.7056                95.5495                25.0712

                     52                     53                     54
                      A                      A                      A
 Frequencies --   2952.2783              2968.7538              2997.8596
 Red. masses --      1.0644                 1.0704                 1.0673
 Frc consts  --      5.4659                 5.5586                 5.6512
 IR Inten    --     87.6006                52.9202                12.7610

                     55                     56                     57
                      A                      A                      A
 Frequencies --   3011.6527              3033.4178              3051.6664
 Red. masses --      1.0656                 1.0967                 1.0880
 Frc consts  --      5.6942                 5.9458                 5.9698
 IR Inten    --     32.9577                39.7760                 3.5145

                     58                     59                     60
                      A                      A                      A
 Frequencies --   3059.3541              3066.2683              3080.1091
 Red. masses --      1.0859                 1.0915                 1.0996
 Frc consts  --      5.9884                 6.0466                 6.1463
 IR Inten    --     29.4044                 0.3654                72.9653

                     61                     62                     63
                      A                      A                      A
 Frequencies --   3474.8682              3558.8000              3814.8706
 Red. masses --      1.0491                 1.0923                 1.0661
 Frc consts  --      7.4637                 8.1505                 9.1414
 IR Inten    --      0.3978                 0.4441                16.2658

 - Thermochemistry -
 -------------------
 Temperature   298.150 Kelvin.  Pressure   1.00000 Atm.
 Atom     1 has atomic number  7 and mass  14.00307

 Molecular mass:   148.10119 amu.
 Principal axes and moments of inertia in atomic units:
                           1         2         3
     Eigenvalues --  1050.557053543.163364438.04456
           X            0.99993   0.00844   0.00813
           Y           -0.00847   0.99996   0.00396
           Z           -0.00809  -0.00403   0.99996
 This molecule is an asymmetric top.
 Rotational symmetry number  1.
 Warning -- assumption of classical behavior for rotation
           may cause significant error
 Rotational temperatures (Kelvin)      0.08245     0.02445     0.01952
 Rotational constants (GHZ):           1.71789     0.50936     0.40665
 Zero-point vibrational energy     516878.3 (Joules/Mol)
                                  123.53689 (Kcal/Mol)
 Warning -- explicit consideration of  17 degrees of freedom as
           vibrations may cause significant error
 Vibrational temperatures:     45.33    83.82    90.20   143.68   176.88
          (Kelvin)            204.67   232.95   309.22   378.93   411.05
                              439.29   472.80   593.67   615.10   729.40
                              765.19   870.19  1083.85  1215.73  1257.12
                             1363.54  1404.61  1452.29  1482.26  1505.91
                             1533.02  1557.69  1594.50  1609.25  1618.46
                             1634.41  1677.71  1772.33  1827.07  1831.97
                             1856.19  1900.08  1923.09  1969.04  2000.08
                             2013.20  2020.29  2049.77  2079.44  2135.87
                             2150.68  2172.73  2180.99  2381.62  2519.52
                             4221.62  4247.67  4271.37  4313.25  4333.10
                             4364.41  4390.67  4401.73  4411.68  4431.59
                             4999.56  5120.32  5488.75

 Zero-point correction=                           0.196869 (Hartree/Particle)
 Thermal correction to Energy=                    0.209018
 Thermal correction to Enthalpy=                  0.209963
 Thermal correction to Gibbs Free Energy=         0.156966
 Sum of electronic and zero-point Energies=           -520.830707
 Sum of electronic and thermal Energies=              -520.818557
 Sum of electronic and thermal Enthalpies=            -520.817613
 Sum of electronic and thermal Free Energies=         -520.870610

                     E (Thermal)             CV                S
                      KCal/Mol        Cal/Mol-Kelvin    Cal/Mol-Kelvin
 Total                  131.161             41.944            111.541
 Electronic               0.000              0.000              0.000
 Translational            0.889              2.981             40.889
 Rotational               0.889              2.981             31.180
 Vibrational            129.384             35.982             39.472
 Vibration     1          0.594              1.983              5.732
 Vibration     2          0.596              1.974              4.515
 Vibration     3          0.597              1.972              4.371
 Vibration     4          0.604              1.949              3.457
 Vibration     5          0.610              1.930              3.054
 Vibration     6          0.616              1.911              2.773
 Vibration     7          0.622              1.889              2.527
 Vibration     8          0.645              1.818              2.002
 Vibration     9          0.670              1.740              1.639
 Vibration    10          0.683              1.700              1.499
 Vibration    11          0.696              1.664              1.388
 Vibration    12          0.712              1.618              1.267
 Vibration    13          0.776              1.443              0.917
 Vibration    14          0.789              1.410              0.867
 Vibration    15          0.862              1.235              0.641
 Vibration    16          0.887              1.180              0.583
 Vibration    17          0.963              1.022              0.441

                           ! Non-Optimized Parameters !
 Normal termination of Gaussian 16 at Mon May 31 18:42:26 2021.
