 Gaussian 16, Revision A.03,
 Gaussian 16:  ES64L-G16RevA.03 25-Dec-2016

 -----------------------------
 # opt freq b3lyp/6-31g(2df,p)
 -----------------------------

 -------------------
 Title Card Required
 -------------------
 Symbolic Z-matrix:
 Charge =  0 Multiplicity = 1

 SCF Done:  E(RB3LYP) =  -393.451685653     A.U. after   13 cycles
 SCF Done:  E(RB3LYP) =  -393.465038585     A.U. after   12 cycles
 SCF Done:  E(RB3LYP) =  -393.473218408     A.U. after   12 cycles
 SCF Done:  E(RB3LYP) =  -393.475697654     A.U. after   12 cycles
 SCF Done:  E(RB3LYP) =  -393.476338123     A.U. after   11 cycles
 SCF Done:  E(RB3LYP) =  -393.476613120     A.U. after   11 cycles
 SCF Done:  E(RB3LYP) =  -393.477008608     A.U. after   11 cycles
 SCF Done:  E(RB3LYP) =  -393.477249000     A.U. after   12 cycles
 SCF Done:  E(RB3LYP) =  -393.477619833     A.U. after   10 cycles
 SCF Done:  E(RB3LYP) =  -393.478275019     A.U. after   11 cycles
 SCF Done:  E(RB3LYP) =  -393.479052033     A.U. after   11 cycles
 SCF Done:  E(RB3LYP) =  -393.479246603     A.U. after   11 cycles
 SCF Done:  E(RB3LYP) =  -393.479271431     A.U. after   10 cycles
 SCF Done:  E(RB3LYP) =  -393.479254860     A.U. after   11 cycles
 SCF Done:  E(RB3LYP) =  -393.479284120     A.U. after   10 cycles
 SCF Done:  E(RB3LYP) =  -393.479280083     A.U. after    9 cycles
 SCF Done:  E(RB3LYP) =  -393.479285645     A.U. after   10 cycles
 SCF Done:  E(RB3LYP) =  -393.479285738     A.U. after    7 cycles
 SCF Done:  E(RB3LYP) =  -393.479285768     A.U. after    7 cycles
 Optimization completed.
    -- Stationary point found.
 Normal termination of Gaussian 16 at Mon May 31 20:01:44 2021.

 ----------------------------------------------------------------------
 #N Geom=AllCheck Guess=TCheck SCRF=Check GenChk RB3LYP/6-31G(2df,p) Fr
 eq
 ----------------------------------------------------------------------

 Structure from the checkpoint file:  "NdC1NNCCpNpN1.chk"
 -------------------
 Title Card Required
 -------------------
 Charge =  0 Multiplicity = 1

                         Standard orientation:
 ---------------------------------------------------------------------
 Center     Atomic      Atomic             Coordinates (Angstroms)
 Number     Number       Type             X           Y           Z
 ---------------------------------------------------------------------
      1          7           0       -2.054615   -1.382741   -0.263737
      2          6           0       -1.193010   -0.488769    0.053601
      3          7           0       -1.373841    0.896297   -0.053726
      4          7           0       -0.274987    1.772378    0.128792
      5          6           0        0.973322    1.166671   -0.322021
      6          6           0        1.282017   -0.166500    0.375745
      7          7           0        2.244710   -0.915773   -0.413078
      8          7           0        0.005800   -0.849032    0.639492
      9          1           0       -2.933840   -0.953291   -0.548699
     10          1           0       -1.948940    1.176806   -0.835344
     11          1           0       -0.219606    1.987645    1.120961
     12          1           0        1.794042    1.869573   -0.160179
     13          1           0        0.892318    0.997942   -1.402976
     14          1           0        1.764968    0.031907    1.341866
     15          1           0        1.816099   -1.239350   -1.276469
     16          1           0        2.567362   -1.737648    0.087710
     17          1           0        0.064143   -1.849907    0.764978
 ---------------------------------------------------------------------

 SCF Done:  E(RB3LYP) =  -393.479285768     A.U. after    1 cycles

 The electronic state is 1-A.
 Alpha  occ. eigenvalues --  -14.36167 -14.35746 -14.33410 -14.32438 -14.26668
 Alpha  occ. eigenvalues --  -10.26552 -10.25286 -10.21833  -1.01171  -0.93315
 Alpha  occ. eigenvalues --   -0.89928  -0.84109  -0.79310  -0.70471  -0.63931
 Alpha  occ. eigenvalues --   -0.58939  -0.53424  -0.52411  -0.50306  -0.47319
 Alpha  occ. eigenvalues --   -0.46535  -0.43679  -0.42380  -0.39622  -0.38225
 Alpha  occ. eigenvalues --   -0.35742  -0.28775  -0.26748  -0.24656  -0.24025
 Alpha  occ. eigenvalues --   -0.20930
 Alpha virt. eigenvalues --    0.06217   0.07162   0.08488   0.09652   0.11402
 Alpha virt. eigenvalues --    0.12865   0.14419   0.15304   0.15927   0.17564
 Alpha virt. eigenvalues --    0.18107   0.20478   0.22527   0.26405   0.27043

 Mulliken charges:
               1
     1  N   -0.572890
     2  C    0.387376
     3  N   -0.320651
     4  N   -0.279381
     5  C   -0.152280
     6  C    0.038415
     7  N   -0.503660
     8  N   -0.304228
     9  H    0.198209
    10  H    0.247104
    11  H    0.240617
    12  H    0.123507
    13  H    0.110568
    14  H    0.088906
    15  H    0.231737
    16  H    0.230950
    17  H    0.235701
 Sum of Mulliken charges =  -0.00000

 Dipole moment (field-independent basis, Debye):
    X=              1.7327    Y=              0.8640    Z=              0.0795  Tot=              1.9378
 Quadrupole moment (field-independent basis, Debye-Ang):
   XX=            -50.1811   YY=            -49.5792   ZZ=            -45.3789
   XY=             -6.9512   XZ=              3.8104   YZ=             -0.0373

  Exact polarizability:  79.681   4.114  67.984   6.354   1.447  50.923
 Approx polarizability: 109.352   8.683 101.046  12.163   4.135  80.492

                      1                      2                      3
                      A                      A                      A
 Frequencies --     63.8446               134.3413               297.8255
 Red. masses --      3.8438                 3.5328                 1.9800
 Frc consts  --      0.0092                 0.0376                 0.1035
 IR Inten    --      1.6507                 0.2331                 8.3951

                      4                      5                      6
                      A                      A                      A
 Frequencies --    329.2993               355.9120               439.9510
 Red. masses --      1.4232                 2.1296                 3.8383
 Frc consts  --      0.0909                 0.1589                 0.4377
 IR Inten    --     22.6783                31.9746                 7.7790

                      7                      8                      9
                      A                      A                      A
 Frequencies --    466.8531               482.3876               544.2110
 Red. masses --      3.1788                 2.0845                 2.0163
 Frc consts  --      0.4082                 0.2858                 0.3518
 IR Inten    --      9.3161                17.1537                75.8207

                     10                     11                     12
                      A                      A                      A
 Frequencies --    558.7738               585.0474               694.8832
 Red. masses --      1.7708                 2.0560                 3.1365
 Frc consts  --      0.3257                 0.4146                 0.8923
 IR Inten    --     96.2383                46.9817                 9.7228

                     13                     14                     15
                      A                      A                      A
 Frequencies --    727.4626               766.6019               819.6356
 Red. masses --      6.0604                 1.1846                 1.5837
 Frc consts  --      1.8896                 0.4102                 0.6269
 IR Inten    --     57.0985                35.2453                71.4160

                     16                     17                     18
                      A                      A                      A
 Frequencies --    839.5262               909.6247               952.8944
 Red. masses --      1.6495                 2.6251                 2.8601
 Frc consts  --      0.6850                 1.2798                 1.5301
 IR Inten    --    216.0445                19.1964                 2.1129

                     19                     20                     21
                      A                      A                      A
 Frequencies --   1011.2679              1063.2955              1098.5059
 Red. masses --      2.2025                 1.4882                 2.5750
 Frc consts  --      1.3271                 0.9913                 1.8307
 IR Inten    --      2.3556                15.7023                23.9079

                     22                     23                     24
                      A                      A                      A
 Frequencies --   1140.8797              1161.6140              1176.2321
 Red. masses --      1.5853                 2.7626                 3.4173
 Frc consts  --      1.2158                 2.1963                 2.7856
 IR Inten    --    101.7949                25.9834                94.9113

                     25                     26                     27
                      A                      A                      A
 Frequencies --   1239.7593              1299.7600              1326.9915
 Red. masses --      1.8402                 1.3846                 1.3792
 Frc consts  --      1.6664                 1.3781                 1.4309
 IR Inten    --     27.1430                 2.4860                31.7064

                     28                     29                     30
                      A                      A                      A
 Frequencies --   1357.7116              1410.7918              1434.8881
 Red. masses --      1.2798                 1.2987                 1.2585
 Frc consts  --      1.3900                 1.5230                 1.5266
 IR Inten    --     12.7885                10.1892                14.1261

                     31                     32                     33
                      A                      A                      A
 Frequencies --   1460.5068              1470.0146              1475.0534
 Red. masses --      1.4900                 1.9304                 1.3232
 Frc consts  --      1.8726                 2.4577                 1.6963
 IR Inten    --     31.1809                82.6504                30.1546

                     34                     35                     36
                      A                      A                      A
 Frequencies --   1518.1981              1661.4925              1719.3152
 Red. masses --      1.1282                 1.0991                 5.5007
 Frc consts  --      1.5321                 1.7876                 9.5803
 IR Inten    --      7.3118                18.4918               366.8664

                     37                     38                     39
                      A                      A                      A
 Frequencies --   3010.3844              3038.0297              3108.3383
 Red. masses --      1.0842                 1.0663                 1.0995
 Frc consts  --      5.7891                 5.7984                 6.2589
 IR Inten    --     41.8903                29.9354                25.2337

                     40                     41                     42
                      A                      A                      A
 Frequencies --   3485.7025              3488.5620              3489.1476
 Red. masses --      1.0745                 1.0743                 1.0488
 Frc consts  --      7.6921                 7.7031                 7.5230
 IR Inten    --      1.3799                 1.6345                 0.1858

                     43                     44                     45
                      A                      A                      A
 Frequencies --   3573.4473              3590.2908              3601.9138
 Red. masses --      1.0929                 1.0766                 1.0753
 Frc consts  --      8.2226                 8.1762                 8.2194
 IR Inten    --      1.1811                19.2038                15.5478

 - Thermochemistry -
 -------------------
 Temperature   298.150 Kelvin.  Pressure   1.00000 Atm.
 Atom     1 has atomic number  7 and mass  14.00307

 Molecular mass:   115.08580 amu.
 Principal axes and moments of inertia in atomic units:
                           1         2         3
     Eigenvalues --   581.47423 912.923371346.90148
           X            0.99962  -0.02622   0.00809
           Y            0.02622   0.99966   0.00084
           Z           -0.00810  -0.00062   0.99997
 This molecule is an asymmetric top.
 Rotational symmetry number  1.
 Warning -- assumption of classical behavior for rotation
           may cause significant error
 Rotational temperatures (Kelvin)      0.14896     0.09488     0.06431
 Rotational constants (GHZ):           3.10373     1.97688     1.33992
 Zero-point vibrational energy     385084.9 (Joules/Mol)
                                   92.03750 (Kcal/Mol)
 Warning -- explicit consideration of  11 degrees of freedom as
           vibrations may cause significant error
 Vibrational temperatures:     91.86   193.29   428.50   473.79   512.08
          (Kelvin)            632.99   671.70   694.05   783.00   803.95
                              841.75   999.78  1046.66  1102.97  1179.27
                             1207.89  1308.75  1371.00  1454.99  1529.85
                             1580.50  1641.47  1671.30  1692.34  1783.74
                             1870.06  1909.24  1953.44  2029.81  2064.48
                             2101.34  2115.02  2122.27  2184.35  2390.52
                             2473.71  4331.27  4371.05  4472.21  5015.15
                             5019.26  5020.11  5141.39  5165.63  5182.35

 Zero-point correction=                           0.146671 (Hartree/Particle)
 Thermal correction to Energy=                    0.154223
 Thermal correction to Enthalpy=                  0.155167
 Thermal correction to Gibbs Free Energy=         0.114735
 Sum of electronic and zero-point Energies=           -393.332615
 Sum of electronic and thermal Energies=              -393.325062
 Sum of electronic and thermal Enthalpies=            -393.324118
 Sum of electronic and thermal Free Energies=         -393.364551

                     E (Thermal)             CV                S
                      KCal/Mol        Cal/Mol-Kelvin    Cal/Mol-Kelvin
 Total                   96.777             29.330             85.097
 Electronic               0.000              0.000              0.000
 Translational            0.889              2.981             40.137
 Rotational               0.889              2.981             28.060
 Vibrational             94.999             23.368             16.900
 Vibration     1          0.597              1.972              4.335
 Vibration     2          0.613              1.919              2.883
 Vibration     3          0.691              1.678              1.429
 Vibration     4          0.712              1.617              1.264
 Vibration     5          0.731              1.563              1.140
 Vibration     6          0.800              1.383              0.827
 Vibration     7          0.824              1.324              0.746
 Vibration     8          0.839              1.289              0.704
 Vibration     9          0.899              1.152              0.556
 Vibration    10          0.914              1.121              0.526
 Vibration    11          0.942              1.064              0.476

 Optimization completed.
    -- Stationary point found.
 Normal termination of Gaussian 16 at Mon May 31 20:22:23 2021.
