 Gaussian 16, Revision A.03,
 Gaussian 16:  ES64L-G16RevA.03 25-Dec-2016

 -----------------------------
 # opt freq b3lyp/6-31g(2df,p)
 -----------------------------

 -------------------
 Title Card Required
 -------------------
 Symbolic Z-matrix:
 Charge =  0 Multiplicity = 1

 SCF Done:  E(RB3LYP) =  -470.813511923     A.U. after   14 cycles
 SCF Done:  E(RB3LYP) =  -470.822533374     A.U. after   11 cycles
 SCF Done:  E(RB3LYP) =  -470.826391403     A.U. after   12 cycles
 SCF Done:  E(RB3LYP) =  -470.830196947     A.U. after   13 cycles
 SCF Done:  E(RB3LYP) =  -470.832155048     A.U. after   11 cycles
 SCF Done:  E(RB3LYP) =  -470.832842728     A.U. after   11 cycles
 SCF Done:  E(RB3LYP) =  -470.832980293     A.U. after   10 cycles
 SCF Done:  E(RB3LYP) =  -470.833035606     A.U. after   10 cycles
 SCF Done:  E(RB3LYP) =  -470.833050801     A.U. after   10 cycles
 SCF Done:  E(RB3LYP) =  -470.833056227     A.U. after    8 cycles
 SCF Done:  E(RB3LYP) =  -470.833057338     A.U. after    8 cycles
 SCF Done:  E(RB3LYP) =  -470.833057937     A.U. after    7 cycles
 SCF Done:  E(RB3LYP) =  -470.833058111     A.U. after    7 cycles
 SCF Done:  E(RB3LYP) =  -470.833058188     A.U. after    7 cycles
 SCF Done:  E(RB3LYP) =  -470.833058244     A.U. after    7 cycles
 Optimization completed.
    -- Stationary point found.
 Normal termination of Gaussian 16 at Mon May 31 13:07:52 2021.

 ----------------------------------------------------------------------
 #N Geom=AllCheck Guess=TCheck SCRF=Check GenChk RB3LYP/6-31G(2df,p) Fr
 eq
 ----------------------------------------------------------------------

 Structure from the checkpoint file:  "NdC1CNNNCpdCNpC1.chk"
 -------------------
 Title Card Required
 -------------------
 Charge =  0 Multiplicity = 1

                         Standard orientation:
 ---------------------------------------------------------------------
 Center     Atomic      Atomic             Coordinates (Angstroms)
 Number     Number       Type             X           Y           Z
 ---------------------------------------------------------------------
      1          7           0       -0.331505    2.452902   -0.051530
      2          6           0        0.314864    1.399335    0.257451
      3          6           0        1.704558    1.036640   -0.246188
      4          7           0        1.744746   -0.303930   -0.846128
      5          7           0        1.678128   -1.388376    0.076556
      6          7           0        0.348250   -1.853460    0.334036
      7          6           0       -0.658552   -0.845519    0.324733
      8          6           0       -1.788489   -0.945128   -0.389021
      9          7           0       -2.852179   -0.025944   -0.355170
     10          6           0       -0.344932    0.373830    1.155484
     11          1           0        0.199217    3.029466   -0.710722
     12          1           0        2.414314    1.130801    0.600872
     13          1           0        2.017327    1.754360   -1.012050
     14          1           0        2.603311   -0.419554   -1.372139
     15          1           0        2.058659   -1.105216    0.979216
     16          1           0        0.145764   -2.570538   -0.354534
     17          1           0       -1.969847   -1.832707   -0.990230
     18          1           0       -2.547162    0.937210   -0.266304
     19          1           0       -3.460707   -0.111988   -1.156691
     20          1           0        0.315778    0.096575    1.985876
     21          1           0       -1.253431    0.808292    1.577601
 ---------------------------------------------------------------------

 SCF Done:  E(RB3LYP) =  -470.833058244     A.U. after    1 cycles

 The electronic state is 1-A.
 Alpha  occ. eigenvalues --  -14.36796 -14.34802 -14.34196 -14.31949 -14.31193
 Alpha  occ. eigenvalues --  -10.23371 -10.22446 -10.19499 -10.19094 -10.18555
 Alpha  occ. eigenvalues --   -1.00504  -0.90733  -0.89846  -0.87858  -0.78639
 Alpha  occ. eigenvalues --   -0.72775  -0.70024  -0.65031  -0.57326  -0.54250
 Alpha  occ. eigenvalues --   -0.52429  -0.50865  -0.49792  -0.47843  -0.45814
 Alpha  occ. eigenvalues --   -0.45650  -0.43095  -0.42948  -0.39373  -0.37134
 Alpha  occ. eigenvalues --   -0.36488  -0.32468  -0.30058  -0.28300  -0.27209
 Alpha  occ. eigenvalues --   -0.25585  -0.23595  -0.17037
 Alpha virt. eigenvalues --   -0.00035   0.05366   0.07297   0.09484   0.09960
 Alpha virt. eigenvalues --    0.10871   0.11625   0.13463   0.14609   0.16028
 Alpha virt. eigenvalues --    0.17314   0.18729   0.19895   0.20238   0.21192

 Mulliken charges:
               1
     1  N   -0.480931
     2  C    0.365582
     3  C   -0.248203
     4  N   -0.254906
     5  N   -0.279845
     6  N   -0.328260
     7  C    0.314919
     8  C   -0.120602
     9  N   -0.529333
    10  C   -0.363839
    11  H    0.210538
    12  H    0.095376
    13  H    0.105463
    14  H    0.236887
    15  H    0.222170
    16  H    0.231010
    17  H    0.083372
    18  H    0.263691
    19  H    0.241283
    20  H    0.105327
    21  H    0.130300
 Sum of Mulliken charges =  -0.00000

 Dipole moment (field-independent basis, Debye):
    X=              1.9024    Y=              0.5865    Z=             -1.6019  Tot=              2.5552
 Quadrupole moment (field-independent basis, Debye-Ang):
   XX=            -54.4186   YY=            -62.4278   ZZ=            -57.4055
   XY=              5.1984   XZ=              4.2632   YZ=              0.4176

  Exact polarizability: 106.368   0.020  92.935   7.472  -1.212  68.248
 Approx polarizability: 157.857  -7.627 139.041  18.654  -4.742 111.334

                      1                      2                      3
                      A                      A                      A
 Frequencies --     67.6394                89.3838               175.6295
 Red. masses --      4.8709                 4.3555                 3.1362
 Frc consts  --      0.0131                 0.0205                 0.0570
 IR Inten    --      0.6534                 3.3527                 0.5771

                      4                      5                      6
                      A                      A                      A
 Frequencies --    217.4309               290.5502               315.2672
 Red. masses --      2.0459                 2.6997                 1.8903
 Frc consts  --      0.0570                 0.1343                 0.1107
 IR Inten    --      9.3073                 3.5308                26.9188

                      7                      8                      9
                      A                      A                      A
 Frequencies --    341.0206               367.4265               411.0679
 Red. masses --      3.3255                 2.7672                 3.1555
 Frc consts  --      0.2279                 0.2201                 0.3142
 IR Inten    --      0.2050                 4.4839                 3.2827

                     10                     11                     12
                      A                      A                      A
 Frequencies --    465.4304               490.0373               503.2927
 Red. masses --      1.7848                 2.7977                 3.5568
 Frc consts  --      0.2278                 0.3958                 0.5308
 IR Inten    --      1.3393                11.5978                 5.1049

                     13                     14                     15
                      A                      A                      A
 Frequencies --    533.2964               624.5511               666.1461
 Red. masses --      2.9494                 2.5877                 3.5392
 Frc consts  --      0.4942                 0.5947                 0.9253
 IR Inten    --     25.8946                41.1647                12.8283

                     16                     17                     18
                      A                      A                      A
 Frequencies --    727.5812               773.4373               785.9679
 Red. masses --      1.4137                 2.5620                 2.5305
 Frc consts  --      0.4409                 0.9030                 0.9210
 IR Inten    --    353.2930                64.7744                50.6989

                     19                     20                     21
                      A                      A                      A
 Frequencies --    823.4827               846.0359               880.5401
 Red. masses --      2.2024                 1.5134                 1.4207
 Frc consts  --      0.8799                 0.6382                 0.6490
 IR Inten    --     25.8215                40.8519                24.4773

                     22                     23                     24
                      A                      A                      A
 Frequencies --    896.3499               912.9681               981.0764
 Red. masses --      2.4493                 2.4872                 1.4839
 Frc consts  --      1.1594                 1.2214                 0.8415
 IR Inten    --     26.7881                14.3383                34.6494

                     25                     26                     27
                      A                      A                      A
 Frequencies --    998.7461              1031.8920              1090.8137
 Red. masses --      1.9706                 1.8403                 5.0607
 Frc consts  --      1.1582                 1.1546                 3.5479
 IR Inten    --     14.5348                 3.8054                 2.7263

                     28                     29                     30
                      A                      A                      A
 Frequencies --   1116.9970              1122.1675              1149.2060
 Red. masses --      1.7298                 1.8018                 1.5821
 Frc consts  --      1.2716                 1.3368                 1.2310
 IR Inten    --     36.3356                 9.9595                28.4388

                     31                     32                     33
                      A                      A                      A
 Frequencies --   1166.2928              1233.5072              1263.2700
 Red. masses --      1.5569                 2.0819                 1.2075
 Frc consts  --      1.2478                 1.8663                 1.1353
 IR Inten    --     17.2524               104.7889                26.4593

                     34                     35                     36
                      A                      A                      A
 Frequencies --   1287.0200              1333.4433              1354.6495
 Red. masses --      1.3956                 2.0283                 1.3882
 Frc consts  --      1.3620                 2.1249                 1.5009
 IR Inten    --      1.5448                 5.5620                 2.6724

                     37                     38                     39
                      A                      A                      A
 Frequencies --   1372.5444              1378.8025              1458.1828
 Red. masses --      1.5629                 1.7419                 1.1728
 Frc consts  --      1.7348                 1.9511                 1.4692
 IR Inten    --     12.4615                47.1838                 8.9601

                     40                     41                     42
                      A                      A                      A
 Frequencies --   1468.8342              1486.0225              1487.4075
 Red. masses --      1.1061                 1.1445                 1.2149
 Frc consts  --      1.4060                 1.4891                 1.5837
 IR Inten    --      1.2180                 9.4887                 1.6775

                     43                     44                     45
                      A                      A                      A
 Frequencies --   1540.8079              1670.2694              1719.9064
 Red. masses --      1.0786                 1.1097                 8.7480
 Frc consts  --      1.5087                 1.8240                15.2465
 IR Inten    --      5.1855                35.8066                66.4013

                     46                     47                     48
                      A                      A                      A
 Frequencies --   1747.5175              2897.0949              3033.6894
 Red. masses --      5.9484                 1.0710                 1.0646
 Frc consts  --     10.7027                 5.2960                 5.7729
 IR Inten    --     24.4819                61.5930                24.6611

                     49                     50                     51
                      A                      A                      A
 Frequencies --   3067.3533              3110.1820              3155.3221
 Red. masses --      1.0885                 1.0977                 1.0893
 Frc consts  --      6.0340                 6.2563                 6.3900
 IR Inten    --     24.1832                 5.0454                17.8325

                     52                     53                     54
                      A                      A                      A
 Frequencies --   3415.8149              3427.4742              3521.2967
 Red. masses --      1.0740                 1.0736                 1.0747
 Frc consts  --      7.3831                 7.4308                 7.8513
 IR Inten    --      5.8459                 4.5598                 1.5757

                     55                     56                     57
                      A                      A                      A
 Frequencies --   3524.3235              3529.3992              3630.7444
 Red. masses --      1.0525                 1.0757                 1.0925
 Frc consts  --      7.7025                 7.8951                 8.4854
 IR Inten    --     10.1670                 1.2635                17.3339

 - Thermochemistry -
 -------------------
 Temperature   298.150 Kelvin.  Pressure   1.00000 Atm.
 Atom     1 has atomic number  7 and mass  14.00307

 Molecular mass:   141.10145 amu.
 Principal axes and moments of inertia in atomic units:
                           1         2         3
     Eigenvalues --  1043.957761334.435462036.63390
           X            0.99888   0.04607   0.01052
           Y           -0.04609   0.99894   0.00177
           Z           -0.01043  -0.00225   0.99994
 This molecule is an asymmetric top.
 Rotational symmetry number  1.
 Warning -- assumption of classical behavior for rotation
           may cause significant error
 Rotational temperatures (Kelvin)      0.08297     0.06491     0.04253
 Rotational constants (GHZ):           1.72875     1.35244     0.88614
 Zero-point vibrational energy     472385.0 (Joules/Mol)
                                  112.90272 (Kcal/Mol)
 Warning -- explicit consideration of  13 degrees of freedom as
           vibrations may cause significant error
 Vibrational temperatures:     97.32   128.60   252.69   312.83   418.04
          (Kelvin)            453.60   490.65   528.64   591.43   669.65
                              705.05   724.13   767.29   898.59   958.44
                             1046.83  1112.80  1130.83  1184.81  1217.26
                             1266.90  1289.65  1313.56  1411.55  1436.97
                             1484.66  1569.44  1607.11  1614.55  1653.45
                             1678.04  1774.74  1817.56  1851.73  1918.53
                             1949.04  1974.79  1983.79  2098.00  2113.32
                             2138.05  2140.05  2216.88  2403.15  2474.56
                             2514.29  4168.27  4364.80  4413.24  4474.86
                             4539.80  4914.60  4931.37  5066.36  5070.72
                             5078.02  5223.83

 Zero-point correction=                           0.179922 (Hartree/Particle)
 Thermal correction to Energy=                    0.189368
 Thermal correction to Enthalpy=                  0.190312
 Thermal correction to Gibbs Free Energy=         0.145556
 Sum of electronic and zero-point Energies=           -470.653136
 Sum of electronic and thermal Energies=              -470.643691
 Sum of electronic and thermal Enthalpies=            -470.642746
 Sum of electronic and thermal Free Energies=         -470.687502

                     E (Thermal)             CV                S
                      KCal/Mol        Cal/Mol-Kelvin    Cal/Mol-Kelvin
 Total                  118.830             37.130             94.197
 Electronic               0.000              0.000              0.000
 Translational            0.889              2.981             40.744
 Rotational               0.889              2.981             29.430
 Vibrational            117.053             31.168             24.022
 Vibration     1          0.598              1.970              4.221
 Vibration     2          0.602              1.957              3.674
 Vibration     3          0.628              1.872              2.374
 Vibration     4          0.646              1.815              1.980
 Vibration     5          0.687              1.691              1.471
 Vibration     6          0.703              1.644              1.335
 Vibration     7          0.721              1.593              1.207
 Vibration     8          0.740              1.539              1.091
 Vibration     9          0.775              1.446              0.923
 Vibration    10          0.823              1.327              0.750
 Vibration    11          0.846              1.272              0.684
 Vibration    12          0.859              1.243              0.650
 Vibration    13          0.888              1.176              0.580

                           ! Non-Optimized Parameters !
 Normal termination of Gaussian 16 at Mon May 31 14:05:56 2021.
