 Gaussian 16, Revision A.03,
 Gaussian 16:  ES64L-G16RevA.03 25-Dec-2016

 -----------------------------
 # opt freq b3lyp/6-31g(2df,p)
 -----------------------------

 -------------------
 Title Card Required
 -------------------
 Symbolic Z-matrix:
 Charge =  0 Multiplicity = 1

 SCF Done:  E(RB3LYP) =  -374.837448744     A.U. after   14 cycles
 SCF Done:  E(RB3LYP) =  -374.860212791     A.U. after   13 cycles
 SCF Done:  E(RB3LYP) =  -374.870299373     A.U. after   13 cycles
 SCF Done:  E(RB3LYP) =  -374.871558682     A.U. after   12 cycles
 SCF Done:  E(RB3LYP) =  -374.872371604     A.U. after   12 cycles
 SCF Done:  E(RB3LYP) =  -374.873085657     A.U. after   12 cycles
 SCF Done:  E(RB3LYP) =  -374.874049402     A.U. after   12 cycles
 SCF Done:  E(RB3LYP) =  -374.875191859     A.U. after   13 cycles
 SCF Done:  E(RB3LYP) =  -374.875883113     A.U. after   12 cycles
 SCF Done:  E(RB3LYP) =  -374.876189226     A.U. after   12 cycles
 SCF Done:  E(RB3LYP) =  -374.876362700     A.U. after   12 cycles
 SCF Done:  E(RB3LYP) =  -374.876425543     A.U. after   11 cycles
 SCF Done:  E(RB3LYP) =  -374.876456113     A.U. after   11 cycles
 SCF Done:  E(RB3LYP) =  -374.876458959     A.U. after    8 cycles
 SCF Done:  E(RB3LYP) =  -374.876459420     A.U. after    7 cycles
 SCF Done:  E(RB3LYP) =  -374.876459824     A.U. after    8 cycles
 Optimization completed.
    -- Stationary point found.
 Normal termination of Gaussian 16 at Tue Jun  1 05:17:17 2021.

 ----------------------------------------------------------------------
 #N Geom=AllCheck Guess=TCheck SCRF=Check GenChk RB3LYP/6-31G(2df,p) Fr
 eq
 ----------------------------------------------------------------------

 Structure from the checkpoint file:  "NdC1CpC2CdN2pN1N.chk"
 -------------------
 Title Card Required
 -------------------
 Charge =  0 Multiplicity = 1

                         Standard orientation:
 ---------------------------------------------------------------------
 Center     Atomic      Atomic             Coordinates (Angstroms)
 Number     Number       Type             X           Y           Z
 ---------------------------------------------------------------------
      1          7           0        1.968121    1.505125   -0.345960
      2          6           0        1.204352    0.710234    0.268364
      3          6           0       -0.113540    0.188441    0.669661
      4          6           0       -1.167769    0.034905   -0.370415
      5          6           0       -2.502760    0.574652   -0.195490
      6          7           0       -2.495757   -0.651518    0.058532
      7          7           0        1.190812   -0.612609    0.599708
      8          7           0        1.408024   -1.576015   -0.434192
      9          1           0        1.526993    2.417542   -0.462321
     10          1           0       -0.476285    0.262179    1.692069
     11          1           0       -0.812559   -0.219523   -1.365372
     12          1           0       -3.197212    1.405884   -0.205812
     13          1           0        1.824527   -2.383652    0.019692
     14          1           0        2.114436   -1.186710   -1.057583
 ---------------------------------------------------------------------

 SCF Done:  E(RB3LYP) =  -374.876459824     A.U. after    1 cycles

 The electronic state is 1-A.
 Alpha  occ. eigenvalues --  -14.37566 -14.36110 -14.35833 -14.31567 -10.25961
 Alpha  occ. eigenvalues --  -10.25243 -10.23981 -10.23637  -1.02606  -0.99866
 Alpha  occ. eigenvalues --   -0.89644  -0.85249  -0.70473  -0.60316  -0.59701
 Alpha  occ. eigenvalues --   -0.57107  -0.51933  -0.50867  -0.49263  -0.45472
 Alpha  occ. eigenvalues --   -0.42895  -0.39493  -0.37650  -0.34601  -0.31740
 Alpha  occ. eigenvalues --   -0.30730  -0.28804  -0.25856  -0.22423
 Alpha virt. eigenvalues --   -0.02673  -0.00318   0.07037   0.08069   0.11367
 Alpha virt. eigenvalues --    0.11937   0.13252   0.14236   0.15402   0.16296
 Alpha virt. eigenvalues --    0.18195   0.19141   0.24502   0.26661   0.29126

 Mulliken charges:
               1
     1  N   -0.541275
     2  C    0.331164
     3  C   -0.117035
     4  C   -0.052723
     5  C   -0.053800
     6  N   -0.155086
     7  N   -0.107186
     8  N   -0.457693
     9  H    0.231127
    10  H    0.120021
    11  H    0.120019
    12  H    0.164720
    13  H    0.259299
    14  H    0.258448
 Sum of Mulliken charges =  -0.00000

 Dipole moment (field-independent basis, Debye):
    X=             -0.9436    Y=              1.4453    Z=             -0.3771  Tot=              1.7668
 Quadrupole moment (field-independent basis, Debye-Ang):
   XX=            -48.3427   YY=            -42.3430   ZZ=            -45.3999
   XY=            -11.9120   XZ=              0.1406   YZ=              0.5082

  Exact polarizability:  84.205  -1.219  70.702  -7.104  -3.072  47.185
 Approx polarizability: 118.443   4.825 119.372 -14.366 -11.616  76.651

                      1                      2                      3
                      A                      A                      A
 Frequencies --     61.5938               134.4386               174.6338
 Red. masses --      4.0652                 4.2338                 4.7586
 Frc consts  --      0.0091                 0.0451                 0.0855
 IR Inten    --      5.7287                 8.3617                 0.8220

                      4                      5                      6
                      A                      A                      A
 Frequencies --    188.7383               242.9164               341.9909
 Red. masses --      4.3306                 1.0945                 4.6244
 Frc consts  --      0.0909                 0.0381                 0.3187
 IR Inten    --      8.0869                29.9982                 8.5208

                      7                      8                      9
                      A                      A                      A
 Frequencies --    344.8007               473.4671               580.9636
 Red. masses --      4.8203                 4.0066                 4.5063
 Frc consts  --      0.3376                 0.5292                 0.8961
 IR Inten    --      6.4720                22.0271                13.5424

                     10                     11                     12
                      A                      A                      A
 Frequencies --    628.5932               732.6926               759.6082
 Red. masses --      5.6954                 5.1035                 3.2676
 Frc consts  --      1.3259                 1.6142                 1.1109
 IR Inten    --     17.1293                14.3741                 4.3562

                     13                     14                     15
                      A                      A                      A
 Frequencies --    807.9813               823.3096               852.6419
 Red. masses --      2.0429                 2.1504                 1.3703
 Frc consts  --      0.7858                 0.8588                 0.5870
 IR Inten    --     46.7533                33.7612                62.4739

                     16                     17                     18
                      A                      A                      A
 Frequencies --    976.3776               995.6648              1016.9982
 Red. masses --      2.7656                 1.5395                 1.5853
 Frc consts  --      1.5534                 0.8992                 0.9661
 IR Inten    --     25.4247                34.7565                23.9177

                     19                     20                     21
                      A                      A                      A
 Frequencies --   1051.0518              1084.3885              1134.1423
 Red. masses --      1.4137                 1.3893                 2.3747
 Frc consts  --      0.9201                 0.9626                 1.7996
 IR Inten    --      9.5772                17.8604                27.2820

                     22                     23                     24
                      A                      A                      A
 Frequencies --   1216.4287              1266.5387              1285.8587
 Red. masses --      1.8307                 1.6094                 2.3266
 Frc consts  --      1.5960                 1.5211                 2.2666
 IR Inten    --     61.6440                15.3016                34.0414

                     25                     26                     27
                      A                      A                      A
 Frequencies --   1295.9929              1344.3781              1411.8639
 Red. masses --      1.9569                 1.2849                 1.5920
 Frc consts  --      1.9365                 1.3682                 1.8698
 IR Inten    --     33.3602                 8.5815                 1.7463

                     28                     29                     30
                      A                      A                      A
 Frequencies --   1662.0140              1750.0078              1856.1752
 Red. masses --      1.0765                 7.6556                 9.3511
 Frc consts  --      1.7520                13.8137                18.9825
 IR Inten    --     19.8962                23.2796               237.3456

                     31                     32                     33
                      A                      A                      A
 Frequencies --   3139.2989              3149.8319              3207.6663
 Red. masses --      1.0887                 1.0861                 1.1128
 Frc consts  --      6.3216                 6.3486                 6.7457
 IR Inten    --      2.0453                10.0030                 5.7353

                     34                     35                     36
                      A                      A                      A
 Frequencies --   3459.7173              3481.2780              3554.1297
 Red. masses --      1.0493                 1.0746                 1.0939
 Frc consts  --      7.4001                 7.6733                 8.1414
 IR Inten    --      2.2665                 2.1021                 6.4753

 - Thermochemistry -
 -------------------
 Temperature   298.150 Kelvin.  Pressure   1.00000 Atm.
 Atom     1 has atomic number  7 and mass  14.00307

 Molecular mass:   110.05925 amu.
 Principal axes and moments of inertia in atomic units:
                           1         2         3
     Eigenvalues --   453.212331227.420631510.17371
           X            0.99937  -0.03478  -0.00675
           Y            0.03483   0.99937   0.00740
           Z            0.00648  -0.00763   0.99995
 This molecule is an asymmetric top.
 Rotational symmetry number  1.
 Warning -- assumption of classical behavior for rotation
           may cause significant error
 Rotational temperatures (Kelvin)      0.19111     0.07057     0.05735
 Rotational constants (GHZ):           3.98211     1.47035     1.19506
 Zero-point vibrational energy     278061.0 (Joules/Mol)
                                   66.45818 (Kcal/Mol)
 Warning -- explicit consideration of   9 degrees of freedom as
           vibrations may cause significant error
 Vibrational temperatures:     88.62   193.43   251.26   271.55   349.50
          (Kelvin)            492.05   496.09   681.21   835.88   904.41
                             1054.18  1092.91  1162.50  1184.56  1226.76
                             1404.79  1432.54  1463.23  1512.23  1560.19
                             1631.78  1750.17  1822.27  1850.06  1864.64
                             1934.26  2031.36  2391.27  2517.87  2670.62
                             4516.75  4531.91  4615.12  4977.76  5008.78
                             5113.60

 Zero-point correction=                           0.105908 (Hartree/Particle)
 Thermal correction to Energy=                    0.113864
 Thermal correction to Enthalpy=                  0.114808
 Thermal correction to Gibbs Free Energy=         0.073159
 Sum of electronic and zero-point Energies=           -374.770552
 Sum of electronic and thermal Energies=              -374.762596
 Sum of electronic and thermal Enthalpies=            -374.761652
 Sum of electronic and thermal Free Energies=         -374.803300

                     E (Thermal)             CV                S
                      KCal/Mol        Cal/Mol-Kelvin    Cal/Mol-Kelvin
 Total                   71.451             28.196             87.657
 Electronic               0.000              0.000              0.000
 Translational            0.889              2.981             40.004
 Rotational               0.889              2.981             28.220
 Vibrational             69.673             22.234             19.433
 Vibration     1          0.597              1.973              4.405
 Vibration     2          0.613              1.919              2.882
 Vibration     3          0.627              1.874              2.385
 Vibration     4          0.633              1.855              2.240
 Vibration     5          0.659              1.774              1.781
 Vibration     6          0.721              1.592              1.203
 Vibration     7          0.723              1.586              1.190
 Vibration     8          0.830              1.309              0.728
 Vibration     9          0.938              1.072              0.484

 Optimization completed.
    -- Stationary point found.
 Normal termination of Gaussian 16 at Tue Jun  1 05:35:37 2021.
