 Gaussian 16, Revision A.03,
 Gaussian 16:  ES64L-G16RevA.03 25-Dec-2016

 -----------------------------
 # opt freq b3lyp/6-31g(2df,p)
 -----------------------------

 -------------------
 Title Card Required
 -------------------
 Symbolic Z-matrix:
 Charge =  0 Multiplicity = 1

 SCF Done:  E(RB3LYP) =  -394.596494274     A.U. after   13 cycles
 SCF Done:  E(RB3LYP) =  -394.607605106     A.U. after   12 cycles
 SCF Done:  E(RB3LYP) =  -394.609983225     A.U. after   12 cycles
 SCF Done:  E(RB3LYP) =  -394.611003694     A.U. after   11 cycles
 SCF Done:  E(RB3LYP) =  -394.611587503     A.U. after   11 cycles
 SCF Done:  E(RB3LYP) =  -394.612708956     A.U. after   13 cycles
 SCF Done:  E(RB3LYP) =  -394.613384494     A.U. after   15 cycles
 SCF Done:  E(RB3LYP) =  -394.614788696     A.U. after   11 cycles
 SCF Done:  E(RB3LYP) =  -394.617214923     A.U. after   12 cycles
 SCF Done:  E(RB3LYP) =  -394.618616981     A.U. after   13 cycles
 SCF Done:  E(RB3LYP) =  -394.619244561     A.U. after   10 cycles
 SCF Done:  E(RB3LYP) =  -394.619590695     A.U. after   10 cycles
 SCF Done:  E(RB3LYP) =  -394.619642730     A.U. after   10 cycles
 SCF Done:  E(RB3LYP) =  -394.619679671     A.U. after   10 cycles
 SCF Done:  E(RB3LYP) =  -394.619685867     A.U. after    9 cycles
 SCF Done:  E(RB3LYP) =  -394.619687080     A.U. after    8 cycles
 SCF Done:  E(RB3LYP) =  -394.619688250     A.U. after    8 cycles
 SCF Done:  E(RB3LYP) =  -394.619688510     A.U. after    7 cycles
 Optimization completed.
    -- Stationary point found.
 Normal termination of Gaussian 16 at Tue Jun  1 04:06:13 2021.

 ----------------------------------------------------------------------
 #N Geom=AllCheck Guess=TCheck SCRF=Check GenChk RB3LYP/6-31G(2df,p) Fr
 eq
 ----------------------------------------------------------------------

 Structure from the checkpoint file:  "NdCCNNpNpCN.chk"
 -------------------
 Title Card Required
 -------------------
 Charge =  0 Multiplicity = 1

                         Standard orientation:
 ---------------------------------------------------------------------
 Center     Atomic      Atomic             Coordinates (Angstroms)
 Number     Number       Type             X           Y           Z
 ---------------------------------------------------------------------
      1          7           0        3.721381   -0.499844    0.250311
      2          6           0        2.727094    0.093102   -0.272075
      3          6           0        1.427355    0.249051    0.464892
      4          7           0        0.328776   -0.230370   -0.385791
      5          7           0       -0.941904    0.116632    0.237728
      6          7           0       -1.153461    1.491201   -0.089002
      7          6           0       -1.977491   -0.747481   -0.335384
      8          7           0       -3.243996   -0.413422    0.291194
      9          1           0        4.519697   -0.492345   -0.389155
     10          1           0        2.727657    0.527334   -1.282108
     11          1           0        1.236685    1.315864    0.631375
     12          1           0        1.487329   -0.248799    1.441036
     13          1           0        0.357370   -1.248045   -0.378324
     14          1           0       -2.014974    1.743686    0.387691
     15          1           0       -1.338082    1.566020   -1.097594
     16          1           0       -1.651456   -1.789294   -0.173555
     17          1           0       -2.072141   -0.588699   -1.425179
     18          1           0       -3.274452   -0.782729    1.235931
     19          1           0       -4.014953   -0.820410   -0.225794
 ---------------------------------------------------------------------

 SCF Done:  E(RB3LYP) =  -394.619688510     A.U. after    1 cycles

 The electronic state is 1-A.
 Alpha  occ. eigenvalues --  -14.36736 -14.34141 -14.32779 -14.32331 -14.31070
 Alpha  occ. eigenvalues --  -10.23755 -10.22173 -10.19668  -1.00438  -0.90060
 Alpha  occ. eigenvalues --   -0.88853  -0.86039  -0.75419  -0.67477  -0.62066
 Alpha  occ. eigenvalues --   -0.55836  -0.52996  -0.50846  -0.49351  -0.46921
 Alpha  occ. eigenvalues --   -0.46420  -0.43252  -0.41050  -0.40576  -0.39543
 Alpha  occ. eigenvalues --   -0.37120  -0.30904  -0.30065  -0.25732  -0.25507
 Alpha  occ. eigenvalues --   -0.25103  -0.19604
 Alpha virt. eigenvalues --    0.00334   0.07151   0.09375   0.10518   0.11290
 Alpha virt. eigenvalues --    0.13005   0.14741   0.15745   0.16670   0.17138
 Alpha virt. eigenvalues --    0.18516   0.19813   0.20053   0.21377   0.21890

 Mulliken charges:
               1
     1  N   -0.377387
     2  C    0.021670
     3  C   -0.132145
     4  N   -0.291958
     5  N   -0.086646
     6  N   -0.425976
     7  C   -0.078760
     8  N   -0.506811
     9  H    0.222545
    10  H    0.091772
    11  H    0.141508
    12  H    0.104718
    13  H    0.223987
    14  H    0.247457
    15  H    0.205600
    16  H    0.084078
    17  H    0.086451
    18  H    0.235861
    19  H    0.234034
 Sum of Mulliken charges =  -0.00000

 Dipole moment (field-independent basis, Debye):
    X=             -2.5299    Y=             -1.2854    Z=             -1.6440  Tot=              3.2795
 Quadrupole moment (field-independent basis, Debye-Ang):
   XX=            -43.5881   YY=            -48.0881   ZZ=            -49.1906
   XY=              5.6149   XZ=             -5.0888   YZ=             -0.1930

  Exact polarizability:  99.808  -5.184  62.105   1.092  -2.527  59.645
 Approx polarizability: 119.495 -11.839  94.625   4.587  -4.683  92.237

                      1                      2                      3
                      A                      A                      A
 Frequencies --     55.6843                75.2002                91.5957
 Red. masses --      4.5268                 3.2335                 2.4246
 Frc consts  --      0.0083                 0.0108                 0.0120
 IR Inten    --      4.1915                 3.0441                 1.0847

                      4                      5                      6
                      A                      A                      A
 Frequencies --    157.1475               191.8582               253.1946
 Red. masses --      2.8158                 2.8886                 1.1779
 Frc consts  --      0.0410                 0.0626                 0.0445
 IR Inten    --     10.1138                 3.0531                25.6489

                      7                      8                      9
                      A                      A                      A
 Frequencies --    287.7041               322.6169               335.1229
 Red. masses --      1.2323                 2.4127                 3.1812
 Frc consts  --      0.0601                 0.1480                 0.2105
 IR Inten    --     47.5878                13.9968                19.3793

                     10                     11                     12
                      A                      A                      A
 Frequencies --    425.0712               497.4781               526.8192
 Red. masses --      3.3178                 2.4984                 2.5719
 Frc consts  --      0.3532                 0.3643                 0.4206
 IR Inten    --      3.6855                14.6324                 6.2662

                     13                     14                     15
                      A                      A                      A
 Frequencies --    593.2489               732.5807               815.9939
 Red. masses --      3.2097                 1.4606                 1.8844
 Frc consts  --      0.6656                 0.4618                 0.7393
 IR Inten    --     27.4064                16.1816                90.0527

                     16                     17                     18
                      A                      A                      A
 Frequencies --    864.9634               872.6210               960.5726
 Red. masses --      1.3316                 2.1523                 2.3752
 Frc consts  --      0.5870                 0.9656                 1.2913
 IR Inten    --     64.3799                85.8366                27.4381

                     19                     20                     21
                      A                      A                      A
 Frequencies --   1008.7424              1028.3647              1042.8495
 Red. masses --      1.7791                 2.0907                 2.4560
 Frc consts  --      1.0666                 1.3027                 1.5737
 IR Inten    --     21.5580                15.0281                25.9975

                     22                     23                     24
                      A                      A                      A
 Frequencies --   1058.2129              1117.0885              1124.0105
 Red. masses --      1.7935                 1.9906                 2.1670
 Frc consts  --      1.1833                 1.4636                 1.6131
 IR Inten    --     20.0325                36.6763                16.4941

                     25                     26                     27
                      A                      A                      A
 Frequencies --   1130.3695              1182.4901              1242.4655
 Red. masses --      1.4268                 1.5641                 1.5656
 Frc consts  --      1.0742                 1.2886                 1.4239
 IR Inten    --      3.5284                59.4691                26.9466

                     28                     29                     30
                      A                      A                      A
 Frequencies --   1249.8725              1286.9502              1338.6729
 Red. masses --      1.3842                 1.2479                 1.2610
 Frc consts  --      1.2740                 1.2177                 1.3314
 IR Inten    --     21.4426                 9.7928                 2.7841

                     31                     32                     33
                      A                      A                      A
 Frequencies --   1341.0710              1359.5904              1418.8244
 Red. masses --      1.3803                 1.2296                 1.5631
 Frc consts  --      1.4626                 1.3391                 1.8540
 IR Inten    --      2.1416                 5.0326                31.6801

                     34                     35                     36
                      A                      A                      A
 Frequencies --   1433.5640              1489.2408              1502.1822
 Red. masses --      1.3865                 1.0974                 1.1560
 Frc consts  --      1.6788                 1.4340                 1.5369
 IR Inten    --     29.2264                 2.5318                12.8767

                     37                     38                     39
                      A                      A                      A
 Frequencies --   1507.5103              1646.4384              1648.0755
 Red. masses --      1.1065                 1.0974                 1.0863
 Frc consts  --      1.4815                 1.7528                 1.7385
 IR Inten    --      4.7868                25.1658                21.8430

                     40                     41                     42
                      A                      A                      A
 Frequencies --   1734.2726              2929.6655              2965.9852
 Red. masses --      6.6815                 1.0535                 1.1059
 Frc consts  --     11.8401                 5.3274                 5.7320
 IR Inten    --     66.4593                68.0668                71.6231

                     43                     44                     45
                      A                      A                      A
 Frequencies --   3016.0588              3021.7072              3076.1013
 Red. masses --      1.0833                 1.0614                 1.1025
 Frc consts  --      5.8062                 5.7099                 6.1467
 IR Inten    --     23.6223                54.6610                13.9857

                     46                     47                     48
                      A                      A                      A
 Frequencies --   3329.6746              3437.3943              3479.7394
 Red. masses --      1.0587                 1.0755                 1.0735
 Frc consts  --      6.9158                 7.4871                 7.6588
 IR Inten    --     22.6363                 2.7747                 0.3154

                     49                     50                     51
                      A                      A                      A
 Frequencies --   3511.1708              3547.4230              3598.0802
 Red. masses --      1.0494                 1.0799                 1.0929
 Frc consts  --      7.6226                 8.0071                 8.3366
 IR Inten    --      0.6568                 9.0376                 2.5978

 - Thermochemistry -
 -------------------
 Temperature   298.150 Kelvin.  Pressure   1.00000 Atm.
 Atom     1 has atomic number  7 and mass  14.00307

 Molecular mass:   117.10145 amu.
 Principal axes and moments of inertia in atomic units:
                           1         2         3
     Eigenvalues --   282.582302234.524372378.93923
           X            0.99996   0.00812  -0.00281
           Y           -0.00814   0.99995  -0.00535
           Z            0.00276   0.00538   0.99998
 This molecule is an asymmetric top.
 Rotational symmetry number  1.
 Rotational temperatures (Kelvin)      0.30651     0.03876     0.03641
 Rotational constants (GHZ):           6.38660     0.80766     0.75863
 Zero-point vibrational energy     435819.5 (Joules/Mol)
                                  104.16336 (Kcal/Mol)
 Warning -- explicit consideration of  13 degrees of freedom as
           vibrations may cause significant error
 Vibrational temperatures:     80.12   108.20   131.79   226.10   276.04
          (Kelvin)            364.29   413.94   464.17   482.17   611.58
                              715.76   757.98   853.55  1054.02  1174.03
                             1244.49  1255.51  1382.05  1451.36  1479.59
                             1500.43  1522.53  1607.24  1617.20  1626.35
                             1701.34  1787.63  1798.29  1851.63  1926.05
                             1929.50  1956.15  2041.37  2062.58  2142.69
                             2161.31  2168.97  2368.86  2371.21  2495.23
                             4215.14  4267.39  4339.44  4347.56  4425.82
                             4790.66  4945.64  5006.57  5051.79  5103.95
                             5176.83

 Zero-point correction=                           0.165995 (Hartree/Particle)
 Thermal correction to Energy=                    0.175614
 Thermal correction to Enthalpy=                  0.176559
 Thermal correction to Gibbs Free Energy=         0.130934
 Sum of electronic and zero-point Energies=           -394.453694
 Sum of electronic and thermal Energies=              -394.444074
 Sum of electronic and thermal Enthalpies=            -394.443130
 Sum of electronic and thermal Free Energies=         -394.488755

                     E (Thermal)             CV                S
                      KCal/Mol        Cal/Mol-Kelvin    Cal/Mol-Kelvin
 Total                  110.200             33.896             96.025
 Electronic               0.000              0.000              0.000
 Translational            0.889              2.981             40.189
 Rotational               0.889              2.981             28.798
 Vibrational            108.422             27.935             27.039
 Vibration     1          0.596              1.975              4.605
 Vibration     2          0.599              1.966              4.012
 Vibration     3          0.602              1.955              3.626
 Vibration     4          0.621              1.895              2.584
 Vibration     5          0.634              1.851              2.210
 Vibration     6          0.664              1.757              1.708
 Vibration     7          0.685              1.697              1.487
 Vibration     8          0.708              1.630              1.297
 Vibration     9          0.716              1.605              1.235
 Vibration    10          0.787              1.416              0.875
 Vibration    11          0.853              1.256              0.664
 Vibration    12          0.882              1.191              0.594
 Vibration    13          0.951              1.046              0.461

                           ! Non-Optimized Parameters !
 Normal termination of Gaussian 16 at Tue Jun  1 04:25:53 2021.
