 Gaussian 16, Revision A.03,
 Gaussian 16:  ES64L-G16RevA.03 25-Dec-2016

 -----------------------------
 # opt freq b3lyp/6-31g(2df,p)
 -----------------------------

 -------------------
 Title Card Required
 -------------------
 Symbolic Z-matrix:
 Charge =  0 Multiplicity = 1

 SCF Done:  E(RB3LYP) =  -501.150388044     A.U. after   13 cycles
 SCF Done:  E(RB3LYP) =  -501.156589092     A.U. after   12 cycles
 SCF Done:  E(RB3LYP) =  -501.157912898     A.U. after   11 cycles
 SCF Done:  E(RB3LYP) =  -501.158269194     A.U. after   12 cycles
 SCF Done:  E(RB3LYP) =  -501.158731192     A.U. after   12 cycles
 SCF Done:  E(RB3LYP) =  -501.158990754     A.U. after   12 cycles
 SCF Done:  E(RB3LYP) =  -501.159492813     A.U. after   11 cycles
 SCF Done:  E(RB3LYP) =  -501.160284995     A.U. after   12 cycles
 SCF Done:  E(RB3LYP) =  -501.160734760     A.U. after   14 cycles
 SCF Done:  E(RB3LYP) =  -501.160868094     A.U. after   10 cycles
 SCF Done:  E(RB3LYP) =  -501.160905719     A.U. after   10 cycles
 SCF Done:  E(RB3LYP) =  -501.160913554     A.U. after   10 cycles
 SCF Done:  E(RB3LYP) =  -501.160916808     A.U. after    8 cycles
 SCF Done:  E(RB3LYP) =  -501.160917880     A.U. after    7 cycles
 SCF Done:  E(RB3LYP) =  -501.160917991     A.U. after    7 cycles
 Optimization completed.
    -- Stationary point found.
 Normal termination of Gaussian 16 at Mon May 31 15:07:03 2021.

 ----------------------------------------------------------------------
 #N Geom=AllCheck Guess=TCheck SCRF=Check GenChk RB3LYP/6-31G(2df,p) Fr
 eq
 ----------------------------------------------------------------------

 Structure from the checkpoint file:  "NdCCNCpNpCCCF.chk"
 -------------------
 Title Card Required
 -------------------
 Charge =  0 Multiplicity = 1

                         Standard orientation:
 ---------------------------------------------------------------------
 Center     Atomic      Atomic             Coordinates (Angstroms)
 Number     Number       Type             X           Y           Z
 ---------------------------------------------------------------------
      1          7           0        4.726971   -0.860198    0.341973
      2          6           0        3.805771   -0.289505   -0.318437
      3          6           0        2.599361    0.299257    0.361402
      4          7           0        1.376920   -0.195446   -0.267088
      5          6           0        0.137707    0.435249    0.214832
      6          7           0       -0.003948    1.809709   -0.243246
      7          6           0       -1.052622   -0.402518   -0.274488
      8          6           0       -2.395046    0.074436    0.283295
      9          6           0       -3.566365   -0.715070   -0.276810
     10          9           0       -4.750034   -0.252464    0.265493
     11          1           0        5.466347   -1.191661   -0.281988
     12          1           0        3.797013   -0.189025   -1.413382
     13          1           0        2.630784    1.388981    0.219160
     14          1           0        2.670013    0.105320    1.443744
     15          1           0        1.319063   -1.199270   -0.122131
     16          1           0        0.108387    0.475418    1.318819
     17          1           0        0.253131    1.860271   -1.225993
     18          1           0        0.613803    2.434394    0.262345
     19          1           0       -0.885668   -1.451950    0.003917
     20          1           0       -1.061170   -0.370674   -1.372361
     21          1           0       -2.527840    1.135070    0.051389
     22          1           0       -2.404094   -0.017853    1.376542
     23          1           0       -3.476937   -1.784493   -0.040758
     24          1           0       -3.624969   -0.611901   -1.368971
 ---------------------------------------------------------------------

 SCF Done:  E(RB3LYP) =  -501.160917991     A.U. after    1 cycles

 The electronic state is 1-A.
 Alpha  occ. eigenvalues --  -24.65792 -14.32192 -14.32044 -14.31562 -10.24732
 Alpha  occ. eigenvalues --  -10.24196 -10.23201 -10.21429 -10.18846 -10.17955
 Alpha  occ. eigenvalues --   -1.17226  -0.93536  -0.90309  -0.85686  -0.79103
 Alpha  occ. eigenvalues --   -0.72614  -0.68024  -0.61115  -0.59179  -0.56795
 Alpha  occ. eigenvalues --   -0.51917  -0.51095  -0.49185  -0.48409  -0.47706
 Alpha  occ. eigenvalues --   -0.45433  -0.44083  -0.42889  -0.41574  -0.39257
 Alpha  occ. eigenvalues --   -0.38653  -0.36606  -0.35300  -0.34441  -0.31950
 Alpha  occ. eigenvalues --   -0.31835  -0.31181  -0.26557  -0.25447  -0.23742
 Alpha virt. eigenvalues --   -0.00611   0.07011   0.09170   0.09815   0.10485
 Alpha virt. eigenvalues --    0.11446   0.12112   0.13780   0.14797   0.15581
 Alpha virt. eigenvalues --    0.16348   0.16805   0.17668   0.18912   0.19967

 Mulliken charges:
               1
     1  N   -0.372924
     2  C    0.024927
     3  C   -0.164692
     4  N   -0.315702
     5  C    0.062942
     6  N   -0.490461
     7  C   -0.201232
     8  C   -0.207900
     9  C   -0.060546
    10  F   -0.158906
    11  H    0.226234
    12  H    0.092277
    13  H    0.102816
    14  H    0.103479
    15  H    0.217123
    16  H    0.067223
    17  H    0.225389
    18  H    0.232159
    19  H    0.089994
    20  H    0.102518
    21  H    0.130850
    22  H    0.102466
    23  H    0.094419
    24  H    0.097548
 Sum of Mulliken charges =  -0.00000

 Dipole moment (field-independent basis, Debye):
    X=              1.9117    Y=             -0.1817    Z=             -1.6165  Tot=              2.5101
 Quadrupole moment (field-independent basis, Debye-Ang):
   XX=            -76.8078   YY=            -58.5472   ZZ=            -60.6754
   XY=              4.6951   XZ=             -4.8116   YZ=              1.0649

  Exact polarizability: 117.485  -6.677  78.947   1.876  -0.761  76.301
 Approx polarizability: 135.761 -12.483 118.537   5.309  -3.569 119.483

                      1                      2                      3
                      A                      A                      A
 Frequencies --     40.4138                55.1022                72.5368
 Red. masses --      5.4033                 3.0209                 2.4633
 Frc consts  --      0.0052                 0.0054                 0.0076
 IR Inten    --      1.7896                 1.8864                 0.9557

                      4                      5                      6
                      A                      A                      A
 Frequencies --     80.3547                90.6746               135.0526
 Red. masses --      2.6184                 3.9832                 3.1759
 Frc consts  --      0.0100                 0.0193                 0.0341
 IR Inten    --      4.2522                 1.7023                 1.0976

                      7                      8                      9
                      A                      A                      A
 Frequencies --    162.3851               196.8316               261.4731
 Red. masses --      2.3228                 3.6785                 5.0152
 Frc consts  --      0.0361                 0.0840                 0.2020
 IR Inten    --      2.7735                 7.8498                 0.8969

                     10                     11                     12
                      A                      A                      A
 Frequencies --    282.6120               327.2505               361.1840
 Red. masses --      1.3019                 2.7314                 2.5813
 Frc consts  --      0.0613                 0.1723                 0.1984
 IR Inten    --     17.6501                11.5346                15.0329

                     13                     14                     15
                      A                      A                      A
 Frequencies --    471.0963               473.6220               540.3281
 Red. masses --      3.0831                 2.4548                 2.4898
 Frc consts  --      0.4031                 0.3244                 0.4283
 IR Inten    --     32.9027                10.0356                29.2426

                     16                     17                     18
                      A                      A                      A
 Frequencies --    564.7174               730.0886               763.5888
 Red. masses --      2.5128                 1.4487                 1.1226
 Frc consts  --      0.4721                 0.4550                 0.3857
 IR Inten    --     10.1640                24.9723                 0.8390

                     19                     20                     21
                      A                      A                      A
 Frequencies --    797.9445               837.3493               855.9936
 Red. masses --      1.2665                 1.8532                 1.3355
 Frc consts  --      0.4751                 0.7656                 0.5766
 IR Inten    --     77.7662               112.5017                43.0038

                     22                     23                     24
                      A                      A                      A
 Frequencies --    931.4425               984.5196              1022.1876
 Red. masses --      2.3736                 2.4511                 2.9203
 Frc consts  --      1.2133                 1.3998                 1.7978
 IR Inten    --     36.6663                38.2231                11.4717

                     25                     26                     27
                      A                      A                      A
 Frequencies --   1042.1745              1052.2115              1060.9259
 Red. masses --      1.7226                 1.6291                 1.8497
 Frc consts  --      1.1023                 1.0627                 1.2266
 IR Inten    --     28.7664                11.5893                 4.3198

                     28                     29                     30
                      A                      A                      A
 Frequencies --   1083.3406              1088.2988              1124.5741
 Red. masses --      4.5960                 3.2545                 1.6482
 Frc consts  --      3.1780                 2.2711                 1.2281
 IR Inten    --     87.9503                22.0908                24.4718

                     31                     32                     33
                      A                      A                      A
 Frequencies --   1130.8004              1167.3643              1208.4051
 Red. masses --      2.0663                 1.9295                 1.4329
 Frc consts  --      1.5567                 1.5492                 1.2328
 IR Inten    --     45.3244                10.2888                24.6855

                     34                     35                     36
                      A                      A                      A
 Frequencies --   1221.8513              1259.0134              1271.8836
 Red. masses --      1.3681                 1.2838                 1.3760
 Frc consts  --      1.2034                 1.1990                 1.3115
 IR Inten    --     36.7059                 2.8351                 2.7537

                     37                     38                     39
                      A                      A                      A
 Frequencies --   1281.6630              1308.0360              1325.4107
 Red. masses --      1.2230                 1.1132                 1.1932
 Frc consts  --      1.1837                 1.1222                 1.2350
 IR Inten    --     13.6949                 8.0653                 4.7134

                     40                     41                     42
                      A                      A                      A
 Frequencies --   1326.2247              1363.8133              1395.4872
 Red. masses --      1.2373                 1.3613                 1.5137
 Frc consts  --      1.2822                 1.4919                 1.7367
 IR Inten    --     11.5579                 5.7024                27.0971

                     43                     44                     45
                      A                      A                      A
 Frequencies --   1416.6343              1425.0813              1438.0716
 Red. masses --      1.4518                 1.3960                 1.3699
 Frc consts  --      1.7166                 1.6704                 1.6692
 IR Inten    --     10.0513                22.0100                25.7223

                     46                     47                     48
                      A                      A                      A
 Frequencies --   1481.9322              1489.3454              1498.3509
 Red. masses --      1.0862                 1.1192                 1.2280
 Frc consts  --      1.4054                 1.4627                 1.6244
 IR Inten    --      1.1323                 1.7066                30.6149

                     49                     50                     51
                      A                      A                      A
 Frequencies --   1503.6029              1525.6616              1658.7496
 Red. masses --      1.1054                 1.0927                 1.0973
 Frc consts  --      1.4725                 1.4985                 1.7789
 IR Inten    --      2.3147                 1.5794                16.5146

                     52                     53                     54
                      A                      A                      A
 Frequencies --   1735.2595              2936.8663              2976.1723
 Red. masses --      6.7166                 1.0819                 1.0616
 Frc consts  --     11.9159                 5.4979                 5.5401
 IR Inten    --     70.4636                49.2731                39.7267

                     55                     56                     57
                      A                      A                      A
 Frequencies --   3003.5003              3011.0556              3013.5496
 Red. masses --      1.0555                 1.0590                 1.0856
 Frc consts  --      5.6099                 5.6571                 5.8089
 IR Inten    --     15.5482                39.0514                37.1784

                     58                     59                     60
                      A                      A                      A
 Frequencies --   3029.5847              3032.8378              3044.3958
 Red. masses --      1.0971                 1.0771                 1.1044
 Frc consts  --      5.9329                 5.8370                 6.0311
 IR Inten    --     39.8038                22.8398                 8.6067

                     61                     62                     63
                      A                      A                      A
 Frequencies --   3051.1549              3103.6153              3442.0929
 Red. masses --      1.0901                 1.0999                 1.0756
 Frc consts  --      5.9795                 6.2421                 7.5083
 IR Inten    --     61.9797                30.5718                 1.4096

                     64                     65                     66
                      A                      A                      A
 Frequencies --   3491.5465              3506.7972              3584.5552
 Red. masses --      1.0503                 1.0731                 1.0912
 Frc consts  --      7.5438                 7.7749                 8.2610
 IR Inten    --      0.2758                 0.1209                 2.1707

 - Thermochemistry -
 -------------------
 Temperature   298.150 Kelvin.  Pressure   1.00000 Atm.
 Atom     1 has atomic number  7 and mass  14.00307

 Molecular mass:   147.11718 amu.
 Principal axes and moments of inertia in atomic units:
                           1         2         3
     Eigenvalues --   415.576624936.590145179.56357
           X            1.00000   0.00252   0.00130
           Y           -0.00256   0.99969   0.02485
           Z           -0.00124  -0.02486   0.99969
 This molecule is an asymmetric top.
 Rotational symmetry number  1.
 Rotational temperatures (Kelvin)      0.20842     0.01755     0.01672
 Rotational constants (GHZ):           4.34274     0.36558     0.34843
 Zero-point vibrational energy     551183.2 (Joules/Mol)
                                  131.73596 (Kcal/Mol)
 Warning -- explicit consideration of  16 degrees of freedom as
           vibrations may cause significant error
 Vibrational temperatures:     58.15    79.28   104.36   115.61   130.46
          (Kelvin)            194.31   233.64   283.20   376.20   406.62
                              470.84   519.66   677.80   681.44   777.41
                              812.50  1050.43  1098.63  1148.06  1204.76
                             1231.58  1340.14  1416.50  1470.70  1499.46
                             1513.90  1526.44  1558.69  1565.82  1618.01
                             1626.97  1679.58  1738.63  1757.97  1811.44
                             1829.96  1844.03  1881.97  1906.97  1908.14
                             1962.22  2007.79  2038.22  2050.37  2069.06
                             2132.17  2142.84  2155.79  2163.35  2195.09
                             2386.57  2496.65  4225.50  4282.05  4321.37
                             4332.24  4335.83  4358.90  4363.58  4380.21
                             4389.93  4465.41  4952.40  5023.56  5045.50
                             5157.38

 Zero-point correction=                           0.209935 (Hartree/Particle)
 Thermal correction to Energy=                    0.222029
 Thermal correction to Enthalpy=                  0.222974
 Thermal correction to Gibbs Free Energy=         0.170215
 Sum of electronic and zero-point Energies=           -500.950983
 Sum of electronic and thermal Energies=              -500.938888
 Sum of electronic and thermal Enthalpies=            -500.937944
 Sum of electronic and thermal Free Energies=         -500.990703

                     E (Thermal)             CV                S
                      KCal/Mol        Cal/Mol-Kelvin    Cal/Mol-Kelvin
 Total                  139.326             42.031            111.039
 Electronic               0.000              0.000              0.000
 Translational            0.889              2.981             40.869
 Rotational               0.889              2.981             30.742
 Vibrational            137.548             36.069             39.428
 Vibration     1          0.594              1.981              5.239
 Vibration     2          0.596              1.976              4.625
 Vibration     3          0.599              1.967              4.083
 Vibration     4          0.600              1.962              3.882
 Vibration     5          0.602              1.956              3.645
 Vibration     6          0.613              1.918              2.873
 Vibration     7          0.622              1.889              2.522
 Vibration     8          0.636              1.844              2.163
 Vibration     9          0.669              1.743              1.652
 Vibration    10          0.682              1.706              1.518
 Vibration    11          0.711              1.621              1.274
 Vibration    12          0.735              1.552              1.117
 Vibration    13          0.828              1.314              0.734
 Vibration    14          0.830              1.309              0.727
 Vibration    15          0.895              1.161              0.565
 Vibration    16          0.921              1.108              0.514

 Optimization completed.
    -- Stationary point found.
 Normal termination of Gaussian 16 at Mon May 31 15:43:07 2021.
