 Gaussian 16, Revision A.03,
 Gaussian 16:  ES64L-G16RevA.03 25-Dec-2016

 -----------------------------
 # opt freq b3lyp/6-31g(2df,p)
 -----------------------------

 -------------------
 Title Card Required
 -------------------
 Symbolic Z-matrix:
 Charge =  0 Multiplicity = 1

 SCF Done:  E(RB3LYP) =  -510.571329433     A.U. after   15 cycles
 SCF Done:  E(RB3LYP) =  -510.577178360     A.U. after   12 cycles
 SCF Done:  E(RB3LYP) =  -510.577748552     A.U. after   12 cycles
 SCF Done:  E(RB3LYP) =  -510.578241982     A.U. after   13 cycles
 SCF Done:  E(RB3LYP) =  -510.578998338     A.U. after   13 cycles
 SCF Done:  E(RB3LYP) =  -510.580417009     A.U. after   13 cycles
 SCF Done:  E(RB3LYP) =  -510.583373894     A.U. after   14 cycles
 SCF Done:  E(RB3LYP) =  -510.585848393     A.U. after   13 cycles
 SCF Done:  E(RB3LYP) =  -510.588845751     A.U. after   13 cycles
 SCF Done:  E(RB3LYP) =  -510.593190278     A.U. after   13 cycles
 SCF Done:  E(RB3LYP) =  -510.610086006     A.U. after   13 cycles
 SCF Done:  E(RB3LYP) =  -510.610401594     A.U. after   12 cycles
 SCF Done:  E(RB3LYP) =  -510.610457668     A.U. after   12 cycles
 SCF Done:  E(RB3LYP) =  -510.610489764     A.U. after   11 cycles
 SCF Done:  E(RB3LYP) =  -510.610515735     A.U. after   10 cycles
 SCF Done:  E(RB3LYP) =  -510.610529824     A.U. after   10 cycles
 SCF Done:  E(RB3LYP) =  -510.610538687     A.U. after   10 cycles
 SCF Done:  E(RB3LYP) =  -510.610539536     A.U. after    8 cycles
 SCF Done:  E(RB3LYP) =  -510.610539641     A.U. after    7 cycles
 Optimization completed.
    -- Stationary point found.
 Normal termination of Gaussian 16 at Tue Jun  1 02:55:02 2021.

 ----------------------------------------------------------------------
 #N Geom=AllCheck Guess=TCheck SCRF=Check GenChk RB3LYP/6-31G(2df,p) Fr
 eq
 ----------------------------------------------------------------------

 Structure from the checkpoint file:  "NdCCpOpCdCNNCdO.chk"
 -------------------
 Title Card Required
 -------------------
 Charge =  0 Multiplicity = 1

                         Standard orientation:
 ---------------------------------------------------------------------
 Center     Atomic      Atomic             Coordinates (Angstroms)
 Number     Number       Type             X           Y           Z
 ---------------------------------------------------------------------
      1          7           0       -3.258668   -1.518165   -0.173448
      2          6           0       -2.888041   -0.443697   -0.732656
      3          6           0       -2.199882    0.618399    0.105937
      4          8           0       -2.070098    0.188347    1.433185
      5          6           0       -0.864016    0.971325   -0.514870
      6          6           0        0.290594    0.787858    0.126031
      7          7           0        1.548034    1.183650   -0.337642
      8          7           0        2.662094    0.504574    0.128921
      9          6           0        2.966189   -0.789478   -0.201195
     10          8           0        3.950910   -1.374654    0.180655
     11          1           0       -3.697873   -2.172645   -0.819887
     12          1           0       -3.018459   -0.211602   -1.796799
     13          1           0       -2.849301    1.515274    0.068079
     14          1           0       -2.479660   -0.693697    1.457000
     15          1           0       -0.892352    1.410842   -1.510208
     16          1           0        0.303854    0.362679    1.122802
     17          1           0        1.606181    1.433257   -1.316754
     18          1           0        3.300737    1.016114    0.722501
     19          1           0        2.191079   -1.226622   -0.861753
 ---------------------------------------------------------------------

 SCF Done:  E(RB3LYP) =  -510.610539641     A.U. after    1 cycles

 The electronic state is 1-A.
 Alpha  occ. eigenvalues --  -19.13001 -19.11655 -14.39057 -14.38737 -14.33681
 Alpha  occ. eigenvalues --  -10.28550 -10.24650 -10.24586 -10.22005 -10.17942
 Alpha  occ. eigenvalues --   -1.05040  -1.02461  -1.00529  -0.91476  -0.84712
 Alpha  occ. eigenvalues --   -0.76962  -0.69900  -0.64094  -0.60851  -0.58331
 Alpha  occ. eigenvalues --   -0.55568  -0.52810  -0.51284  -0.49201  -0.47417
 Alpha  occ. eigenvalues --   -0.45181  -0.43424  -0.41950  -0.40304  -0.38147
 Alpha  occ. eigenvalues --   -0.35267  -0.33707  -0.33172  -0.29048  -0.27697
 Alpha  occ. eigenvalues --   -0.27289  -0.26550  -0.21507
 Alpha virt. eigenvalues --   -0.01746   0.01289   0.03827   0.07830   0.08319
 Alpha virt. eigenvalues --    0.09691   0.10983   0.12923   0.13646   0.14974
 Alpha virt. eigenvalues --    0.15432   0.18210   0.20593   0.21266   0.24955

 Mulliken charges:
               1
     1  N   -0.407413
     2  C    0.031496
     3  C    0.086827
     4  O   -0.431370
     5  C   -0.220722
     6  C    0.087700
     7  N   -0.304334
     8  N   -0.241397
     9  C    0.180568
    10  O   -0.313135
    11  H    0.237447
    12  H    0.100178
    13  H    0.091165
    14  H    0.294635
    15  H    0.073566
    16  H    0.136789
    17  H    0.251036
    18  H    0.264556
    19  H    0.082408
 Sum of Mulliken charges =  -0.00000

 Dipole moment (field-independent basis, Debye):
    X=             -2.2968    Y=              1.8180    Z=             -3.5076  Tot=              4.5699
 Quadrupole moment (field-independent basis, Debye-Ang):
   XX=            -65.5465   YY=            -59.4800   ZZ=            -55.0215
   XY=             11.6837   XZ=              5.5127   YZ=              0.0969

  Exact polarizability: 113.326   2.464  76.080   9.877  -3.653  66.931
 Approx polarizability: 148.381  -0.766 119.944  18.022 -10.956 104.933

                      1                      2                      3
                      A                      A                      A
 Frequencies --     35.8869                42.1663                80.9862
 Red. masses --      6.2994                 6.7180                 5.1459
 Frc consts  --      0.0048                 0.0070                 0.0199
 IR Inten    --      0.7048                 2.1464                 0.9651

                      4                      5                      6
                      A                      A                      A
 Frequencies --    136.8265               145.3752               189.9493
 Red. masses --      1.9069                 4.9152                 2.8117
 Frc consts  --      0.0210                 0.0612                 0.0598
 IR Inten    --      1.6243                 1.6190                 3.9787

                      7                      8                      9
                      A                      A                      A
 Frequencies --    239.4752               311.2580               322.4088
 Red. masses --      2.3526                 4.3335                 4.7488
 Frc consts  --      0.0795                 0.2474                 0.2908
 IR Inten    --      3.5031                22.2224                10.5705

                     10                     11                     12
                      A                      A                      A
 Frequencies --    347.7232               394.7777               444.6390
 Red. masses --      4.1987                 3.9819                 2.7869
 Frc consts  --      0.2991                 0.3656                 0.3246
 IR Inten    --      3.2406                13.9965                27.2001

                     13                     14                     15
                      A                      A                      A
 Frequencies --    492.3161               540.3076               588.1827
 Red. masses --      1.1496                 1.5530                 1.7383
 Frc consts  --      0.1642                 0.2671                 0.3543
 IR Inten    --     67.5774                49.9981               146.9091

                     16                     17                     18
                      A                      A                      A
 Frequencies --    636.9943               678.1687               718.2168
 Red. masses --      2.4650                 2.4276                 3.2603
 Frc consts  --      0.5893                 0.6578                 0.9909
 IR Inten    --     25.9074                 9.1584                72.4366

                     19                     20                     21
                      A                      A                      A
 Frequencies --    788.7269               827.6377               930.4724
 Red. masses --      1.9266                 2.4995                 2.4471
 Frc consts  --      0.7061                 1.0088                 1.2483
 IR Inten    --      8.1715                18.8779                31.6321

                     22                     23                     24
                      A                      A                      A
 Frequencies --    982.5446              1004.8710              1052.5067
 Red. masses --      1.9988                 1.2368                 1.5495
 Frc consts  --      1.1369                 0.7358                 1.0113
 IR Inten    --      1.2641                35.6853                 0.6481

                     25                     26                     27
                      A                      A                      A
 Frequencies --   1100.2090              1121.4046              1155.9633
 Red. masses --      1.2534                 2.0172                 2.4647
 Frc consts  --      0.8939                 1.4946                 1.9405
 IR Inten    --     12.6015                75.5295                25.2418

                     28                     29                     30
                      A                      A                      A
 Frequencies --   1199.1359              1214.6903              1269.4510
 Red. masses --      1.6693                 4.1580                 1.5046
 Frc consts  --      1.4142                 3.6147                 1.4286
 IR Inten    --     25.6190               245.9715                13.5349

                     31                     32                     33
                      A                      A                      A
 Frequencies --   1270.7219              1311.5621              1317.7223
 Red. masses --      1.2829                 1.6401                 1.7987
 Frc consts  --      1.2205                 1.6623                 1.8401
 IR Inten    --     11.4730                23.4465                10.5900

                     34                     35                     36
                      A                      A                      A
 Frequencies --   1359.2639              1384.6921              1399.9986
 Red. masses --      1.4658                 1.1766                 1.5225
 Frc consts  --      1.5957                 1.3292                 1.7582
 IR Inten    --     22.4507                 3.1156                35.0186

                     37                     38                     39
                      A                      A                      A
 Frequencies --   1446.0376              1466.8140              1496.8558
 Red. masses --      1.2551                 1.4867                 1.2429
 Frc consts  --      1.5463                 1.8846                 1.6408
 IR Inten    --    102.4871                 7.4495                13.4847

                     40                     41                     42
                      A                      A                      A
 Frequencies --   1726.8475              1740.7925              1825.4620
 Red. masses --      6.8311                 5.6952                 7.6617
 Frc consts  --     12.0019                10.1683                15.0426
 IR Inten    --     32.4422               138.8769               390.9612

                     43                     44                     45
                      A                      A                      A
 Frequencies --   2904.1000              2945.3242              3047.1494
 Red. masses --      1.0793                 1.0856                 1.0895
 Frc consts  --      5.3630                 5.5485                 5.9601
 IR Inten    --     54.6575                60.1995                41.6895

                     46                     47                     48
                      A                      A                      A
 Frequencies --   3141.0357              3216.0980              3485.4850
 Red. masses --      1.0887                 1.0897                 1.0769
 Frc consts  --      6.3287                 6.6410                 7.7079
 IR Inten    --     20.9996                 0.1798                 0.4059

                     49                     50                     51
                      A                      A                      A
 Frequencies --   3551.2508              3589.0566              3637.8050
 Red. masses --      1.0755                 1.0771                 1.0651
 Frc consts  --      7.9915                 8.1746                 8.3044
 IR Inten    --     12.5200                27.1511               115.4315

 - Thermochemistry -
 -------------------
 Temperature   298.150 Kelvin.  Pressure   1.00000 Atm.
 Atom     1 has atomic number  7 and mass  14.00307

 Molecular mass:   143.06948 amu.
 Principal axes and moments of inertia in atomic units:
                           1         2         3
     Eigenvalues --   686.970923530.384133798.56110
           X            0.99994   0.00975   0.00542
           Y           -0.00971   0.99993  -0.00728
           Z           -0.00549   0.00723   0.99996
 This molecule is an asymmetric top.
 Rotational symmetry number  1.
 Warning -- assumption of classical behavior for rotation
           may cause significant error
 Rotational temperatures (Kelvin)      0.12608     0.02453     0.02280
 Rotational constants (GHZ):           2.62710     0.51120     0.47511
 Zero-point vibrational energy     396306.9 (Joules/Mol)
                                   94.71963 (Kcal/Mol)
 Warning -- explicit consideration of  15 degrees of freedom as
           vibrations may cause significant error
 Vibrational temperatures:     51.63    60.67   116.52   196.86   209.16
          (Kelvin)            273.29   344.55   447.83   463.87   500.30
                              568.00   639.74   708.33   777.38   846.26
                              916.49   975.73  1033.35  1134.80  1190.79
                             1338.74  1413.66  1445.79  1514.32  1582.96
                             1613.45  1663.17  1725.29  1747.67  1826.46
                             1828.29  1887.05  1895.91  1955.68  1992.26
                             2014.29  2080.53  2110.42  2153.64  2484.55
                             2504.61  2626.43  4178.35  4237.66  4384.17
                             4519.25  4627.25  5014.84  5109.46  5163.85
                             5233.99

 Zero-point correction=                           0.150945 (Hartree/Particle)
 Thermal correction to Energy=                    0.161867
 Thermal correction to Enthalpy=                  0.162811
 Thermal correction to Gibbs Free Energy=         0.112871
 Sum of electronic and zero-point Energies=           -510.459594
 Sum of electronic and thermal Energies=              -510.448673
 Sum of electronic and thermal Enthalpies=            -510.447729
 Sum of electronic and thermal Free Energies=         -510.497669

                     E (Thermal)             CV                S
                      KCal/Mol        Cal/Mol-Kelvin    Cal/Mol-Kelvin
 Total                  101.573             38.459            105.108
 Electronic               0.000              0.000              0.000
 Translational            0.889              2.981             40.786
 Rotational               0.889              2.981             30.600
 Vibrational             99.796             32.497             33.723
 Vibration     1          0.594              1.982              5.474
 Vibration     2          0.595              1.980              5.155
 Vibration     3          0.600              1.962              3.867
 Vibration     4          0.614              1.917              2.848
 Vibration     5          0.617              1.908              2.732
 Vibration     6          0.633              1.854              2.228
 Vibration     7          0.657              1.780              1.807
 Vibration     8          0.700              1.652              1.356
 Vibration     9          0.707              1.631              1.298
 Vibration    10          0.725              1.580              1.176
 Vibration    11          0.762              1.481              0.982
 Vibration    12          0.804              1.373              0.812
 Vibration    13          0.848              1.267              0.678
 Vibration    14          0.895              1.161              0.565
 Vibration    15          0.945              1.057              0.470

                           ! Non-Optimized Parameters !
 Normal termination of Gaussian 16 at Tue Jun  1 03:21:29 2021.
