 Gaussian 16, Revision A.03,
 Gaussian 16:  ES64L-G16RevA.03 25-Dec-2016

 -----------------------------
 # opt freq b3lyp/6-31g(2df,p)
 -----------------------------

 -------------------
 Title Card Required
 -------------------
 Symbolic Z-matrix:
 Charge =  0 Multiplicity = 1

 SCF Done:  E(RB3LYP) =  -431.533714265     A.U. after   14 cycles
 SCF Done:  E(RB3LYP) =  -431.543443159     A.U. after   13 cycles
 SCF Done:  E(RB3LYP) =  -431.545869345     A.U. after   11 cycles
 SCF Done:  E(RB3LYP) =  -431.547670547     A.U. after   12 cycles
 SCF Done:  E(RB3LYP) =  -431.548486148     A.U. after   12 cycles
 SCF Done:  E(RB3LYP) =  -431.548633152     A.U. after   12 cycles
 SCF Done:  E(RB3LYP) =  -431.548862652     A.U. after   13 cycles
 SCF Done:  E(RB3LYP) =  -431.548869927     A.U. after   13 cycles
 SCF Done:  E(RB3LYP) =  -431.549166448     A.U. after   12 cycles
 SCF Done:  E(RB3LYP) =  -431.549931256     A.U. after   13 cycles
 SCF Done:  E(RB3LYP) =  -431.550003135     A.U. after   12 cycles
 SCF Done:  E(RB3LYP) =  -431.550030723     A.U. after   11 cycles
 SCF Done:  E(RB3LYP) =  -431.550036704     A.U. after   11 cycles
 SCF Done:  E(RB3LYP) =  -431.550037477     A.U. after    9 cycles
 SCF Done:  E(RB3LYP) =  -431.550037708     A.U. after    8 cycles
 Optimization completed.
    -- Stationary point found.
 Normal termination of Gaussian 16 at Tue Jun  1 06:43:44 2021.

 ----------------------------------------------------------------------
 #N Geom=AllCheck Guess=TCheck SCRF=Check GenChk RB3LYP/6-31G(2df,p) Fr
 eq
 ----------------------------------------------------------------------

 Structure from the checkpoint file:  "NdCCdNCCpdNpNN.chk"
 -------------------
 Title Card Required
 -------------------
 Charge =  0 Multiplicity = 1

                         Standard orientation:
 ---------------------------------------------------------------------
 Center     Atomic      Atomic             Coordinates (Angstroms)
 Number     Number       Type             X           Y           Z
 ---------------------------------------------------------------------
      1          7           0        4.277391   -0.114053    0.533654
      2          6           0        3.229860    0.369086   -0.005077
      3          6           0        1.978345   -0.405012    0.017822
      4          7           0        0.929729    0.058360   -0.528155
      5          6           0       -0.276230   -0.737428   -0.490910
      6          6           0       -1.482648    0.116243   -0.098288
      7          7           0       -1.526127    1.389521   -0.058480
      8          7           0       -2.587925   -0.640027    0.236978
      9          7           0       -3.850342   -0.008084    0.347573
     10          1           0        5.064994    0.530936    0.441330
     11          1           0        3.158301    1.341684   -0.506586
     12          1           0        2.030436   -1.377945    0.525828
     13          1           0       -0.200673   -1.608481    0.179231
     14          1           0       -0.454095   -1.123038   -1.505980
     15          1           0       -0.610277    1.763190   -0.302487
     16          1           0       -2.656762   -1.550090   -0.195631
     17          1           0       -3.794979    0.848772   -0.206982
     18          1           0       -3.931992    0.317622    1.308997
 ---------------------------------------------------------------------

 SCF Done:  E(RB3LYP) =  -431.550037708     A.U. after    1 cycles

 The electronic state is 1-A.
 Alpha  occ. eigenvalues --  -14.36418 -14.35200 -14.33925 -14.33882 -14.28537
 Alpha  occ. eigenvalues --  -10.24973 -10.24483 -10.24335 -10.23321  -0.99067
 Alpha  occ. eigenvalues --   -0.95063  -0.91451  -0.87499  -0.78861  -0.74100
 Alpha  occ. eigenvalues --   -0.65522  -0.59026  -0.56782  -0.52591  -0.50266
 Alpha  occ. eigenvalues --   -0.49163  -0.47508  -0.46895  -0.45191  -0.44509
 Alpha  occ. eigenvalues --   -0.41202  -0.37807  -0.33306  -0.30441  -0.28644
 Alpha  occ. eigenvalues --   -0.27742  -0.27222  -0.25759  -0.22900
 Alpha virt. eigenvalues --   -0.06874   0.03431   0.04871   0.08424   0.08741
 Alpha virt. eigenvalues --    0.09879   0.11098   0.13883   0.15294   0.16415
 Alpha virt. eigenvalues --    0.17329   0.18488   0.18987   0.22062   0.25916

 Mulliken charges:
               1
     1  N   -0.373961
     2  C   -0.007781
     3  C    0.029536
     4  N   -0.157017
     5  C   -0.248418
     6  C    0.355475
     7  N   -0.522528
     8  N   -0.298843
     9  N   -0.458490
    10  H    0.238311
    11  H    0.107385
    12  H    0.105833
    13  H    0.112511
    14  H    0.138972
    15  H    0.228008
    16  H    0.247582
    17  H    0.251808
    18  H    0.251616
 Sum of Mulliken charges =  -0.00000

 Dipole moment (field-independent basis, Debye):
    X=              1.4482    Y=             -0.9987    Z=             -0.7855  Tot=              1.9265
 Quadrupole moment (field-independent basis, Debye-Ang):
   XX=            -55.4605   YY=            -52.1410   ZZ=            -53.1531
   XY=              7.7386   XZ=             -2.6000   YZ=              1.8441

  Exact polarizability: 127.940   2.160  72.560   6.473  -3.835  51.429
 Approx polarizability: 163.829  -2.463 121.699  17.418 -10.020  84.224

                      1                      2                      3
                      A                      A                      A
 Frequencies --     36.3965                55.9798               124.5572
 Red. masses --      4.6114                 4.9091                 2.7867
 Frc consts  --      0.0036                 0.0091                 0.0255
 IR Inten    --      0.1787                 0.9316                 2.8717

                      4                      5                      6
                      A                      A                      A
 Frequencies --    162.7366               189.6040               192.8702
 Red. masses --      2.9540                 2.7671                 1.3918
 Frc consts  --      0.0461                 0.0586                 0.0305
 IR Inten    --      1.9643                 2.8228                19.3253

                      7                      8                      9
                      A                      A                      A
 Frequencies --    228.5091               281.8208               342.8975
 Red. masses --      2.9740                 2.7368                 5.3221
 Frc consts  --      0.0915                 0.1281                 0.3687
 IR Inten    --     19.0368                26.0943                14.4795

                     10                     11                     12
                      A                      A                      A
 Frequencies --    365.3374               487.2550               549.4951
 Red. masses --      3.3975                 3.3049                 1.3685
 Frc consts  --      0.2672                 0.4623                 0.2435
 IR Inten    --      6.1048                12.6277               137.2777

                     13                     14                     15
                      A                      A                      A
 Frequencies --    572.2128               590.7265               718.9081
 Red. masses --      3.6931                 4.8132                 2.5480
 Frc consts  --      0.7125                 0.9896                 0.7759
 IR Inten    --      7.5496                11.5539                28.9644

                     16                     17                     18
                      A                      A                      A
 Frequencies --    793.9900               876.4999               939.6850
 Red. masses --      1.3575                 1.1705                 3.0499
 Frc consts  --      0.5042                 0.5298                 1.5867
 IR Inten    --     51.0364                37.1659                18.8286

                     19                     20                     21
                      A                      A                      A
 Frequencies --    966.8163               989.5193              1037.1101
 Red. masses --      2.9170                 1.9657                 1.7582
 Frc consts  --      1.6065                 1.1340                 1.1142
 IR Inten    --     79.8722                42.5261                10.1313

                     22                     23                     24
                      A                      A                      A
 Frequencies --   1075.8731              1080.9301              1129.8706
 Red. masses --      2.3191                 2.5368                 1.2310
 Frc consts  --      1.5816                 1.7464                 0.9259
 IR Inten    --      7.8890                34.3132                 5.9400

                     25                     26                     27
                      A                      A                      A
 Frequencies --   1133.0948              1220.6286              1235.7767
 Red. masses --      1.7349                 1.8395                 1.1100
 Frc consts  --      1.3124                 1.6148                 0.9987
 IR Inten    --     34.1221                65.2460                 5.2779

                     28                     29                     30
                      A                      A                      A
 Frequencies --   1253.7555              1310.6521              1350.1984
 Red. masses --      1.2884                 1.3173                 1.3758
 Frc consts  --      1.1933                 1.3332                 1.4777
 IR Inten    --     11.7902                63.0868                89.2507

                     31                     32                     33
                      A                      A                      A
 Frequencies --   1367.6096              1391.8426              1413.5433
 Red. masses --      1.1754                 1.5594                 1.7490
 Frc consts  --      1.2952                 1.7799                 2.0590
 IR Inten    --      3.0432                16.4219                18.9033

                     34                     35                     36
                      A                      A                      A
 Frequencies --   1470.7347              1509.8205              1702.3775
 Red. masses --      1.1024                 1.6495                 7.1523
 Frc consts  --      1.4049                 2.2154                12.2127
 IR Inten    --     14.9602               109.3794                55.0382

                     37                     38                     39
                      A                      A                      A
 Frequencies --   1709.3215              1725.3450              1733.7997
 Red. masses --      1.2711                 3.5145                 8.2911
 Frc consts  --      2.1881                 6.1640                14.6846
 IR Inten    --     83.6780                65.2964                14.4004

                     40                     41                     42
                      A                      A                      A
 Frequencies --   2974.0511              3019.0352              3033.3742
 Red. masses --      1.0589                 1.0993                 1.0881
 Frc consts  --      5.5181                 5.9037                 5.8989
 IR Inten    --     33.9614                14.1508                23.3955

                     43                     44                     45
                      A                      A                      A
 Frequencies --   3055.4636              3430.9009              3457.0259
 Red. masses --      1.0892                 1.0508                 1.0758
 Frc consts  --      5.9912                 7.2879                 7.5754
 IR Inten    --     29.9562                 6.0217                 1.0790

                     46                     47                     48
                      A                      A                      A
 Frequencies --   3500.8139              3503.6944              3588.4846
 Red. masses --      1.0890                 1.0735                 1.0768
 Frc consts  --      7.8636                 7.7642                 8.1694
 IR Inten    --      1.7244                17.8869                22.5281

 - Thermochemistry -
 -------------------
 Temperature   298.150 Kelvin.  Pressure   1.00000 Atm.
 Atom     1 has atomic number  7 and mass  14.00307

 Molecular mass:   127.08580 amu.
 Principal axes and moments of inertia in atomic units:
                           1         2         3
     Eigenvalues --   271.145753206.902243346.77196
           X            0.99999   0.00429  -0.00148
           Y           -0.00428   0.99997   0.00609
           Z            0.00150  -0.00609   0.99998
 This molecule is an asymmetric top.
 Rotational symmetry number  1.
 Rotational temperatures (Kelvin)      0.31944     0.02701     0.02588
 Rotational constants (GHZ):           6.65598     0.56277     0.53925
 Zero-point vibrational energy     388074.2 (Joules/Mol)
                                   92.75197 (Kcal/Mol)
 Warning -- explicit consideration of  14 degrees of freedom as
           vibrations may cause significant error
 Vibrational temperatures:     52.37    80.54   179.21   234.14   272.80
          (Kelvin)            277.50   328.77   405.48   493.35   525.64
                              701.05   790.60   823.29   849.92  1034.35
                             1142.37  1261.09  1352.00  1391.03  1423.70
                             1492.17  1547.94  1555.22  1625.63  1630.27
                             1756.21  1778.01  1803.87  1885.74  1942.63
                             1967.69  2002.55  2033.77  2116.06  2172.29
                             2449.34  2459.33  2482.39  2494.55  4279.00
                             4343.72  4364.35  4396.13  4936.30  4973.89
                             5036.89  5041.03  5163.03

 Zero-point correction=                           0.147810 (Hartree/Particle)
 Thermal correction to Energy=                    0.157833
 Thermal correction to Enthalpy=                  0.158777
 Thermal correction to Gibbs Free Energy=         0.111562
 Sum of electronic and zero-point Energies=           -431.402228
 Sum of electronic and thermal Energies=              -431.392205
 Sum of electronic and thermal Enthalpies=            -431.391261
 Sum of electronic and thermal Free Energies=         -431.438476

                     E (Thermal)             CV                S
                      KCal/Mol        Cal/Mol-Kelvin    Cal/Mol-Kelvin
 Total                   99.042             34.759             99.373
 Electronic               0.000              0.000              0.000
 Translational            0.889              2.981             40.432
 Rotational               0.889              2.981             29.455
 Vibrational             97.264             28.798             29.486
 Vibration     1          0.594              1.982              5.446
 Vibration     2          0.596              1.975              4.594
 Vibration     3          0.610              1.928              3.028
 Vibration     4          0.623              1.888              2.518
 Vibration     5          0.633              1.854              2.232
 Vibration     6          0.635              1.850              2.200
 Vibration     7          0.651              1.798              1.891
 Vibration     8          0.681              1.707              1.523
 Vibration     9          0.722              1.590              1.199
 Vibration    10          0.739              1.544              1.099
 Vibration    11          0.843              1.278              0.691
 Vibration    12          0.905              1.141              0.545
 Vibration    13          0.928              1.091              0.500
 Vibration    14          0.948              1.052              0.466

                           ! Non-Optimized Parameters !
 Normal termination of Gaussian 16 at Tue Jun  1 07:11:20 2021.
