 Gaussian 16, Revision A.03,
 Gaussian 16:  ES64L-G16RevA.03 25-Dec-2016

 -----------------------------
 # opt freq b3lyp/6-31g(2df,p)
 -----------------------------

 -------------------
 Title Card Required
 -------------------
 Symbolic Z-matrix:
 Charge =  0 Multiplicity = 1

 SCF Done:  E(RB3LYP) =  -416.709092851     A.U. after   13 cycles
 SCF Done:  E(RB3LYP) =  -416.716780364     A.U. after   12 cycles
 SCF Done:  E(RB3LYP) =  -416.718179179     A.U. after   11 cycles
 SCF Done:  E(RB3LYP) =  -416.718324137     A.U. after   11 cycles
 SCF Done:  E(RB3LYP) =  -416.718389303     A.U. after   11 cycles
 SCF Done:  E(RB3LYP) =  -416.718465119     A.U. after   11 cycles
 SCF Done:  E(RB3LYP) =  -416.718564551     A.U. after   12 cycles
 SCF Done:  E(RB3LYP) =  -416.718806044     A.U. after   10 cycles
 SCF Done:  E(RB3LYP) =  -416.718742199     A.U. after   12 cycles
 SCF Done:  E(RB3LYP) =  -416.679642231     A.U. after   12 cycles
 SCF Done:  E(RB3LYP) =  -416.721201255     A.U. after   12 cycles
 SCF Done:  E(RB3LYP) =  -416.722253586     A.U. after   12 cycles
 SCF Done:  E(RB3LYP) =  -416.722231965     A.U. after   11 cycles
 SCF Done:  E(RB3LYP) =  -416.722301830     A.U. after   11 cycles
 SCF Done:  E(RB3LYP) =  -416.722612130     A.U. after   10 cycles
 SCF Done:  E(RB3LYP) =  -416.722646565     A.U. after   11 cycles
 SCF Done:  E(RB3LYP) =  -416.722655169     A.U. after   10 cycles
 SCF Done:  E(RB3LYP) =  -416.722661898     A.U. after    9 cycles
 SCF Done:  E(RB3LYP) =  -416.722662453     A.U. after    8 cycles
 Optimization completed.
    -- Stationary point found.
 Normal termination of Gaussian 16 at Mon May 31 14:53:06 2021.

 ----------------------------------------------------------------------
 #N Geom=AllCheck Guess=TCheck SCRF=Check GenChk RB3LYP/6-31G(2df,p) Fr
 eq
 ----------------------------------------------------------------------

 Structure from the checkpoint file:  "NdCC1CNCpNNpC1.chk"
 -------------------
 Title Card Required
 -------------------
 Charge =  0 Multiplicity = 1

                         Standard orientation:
 ---------------------------------------------------------------------
 Center     Atomic      Atomic             Coordinates (Angstroms)
 Number     Number       Type             X           Y           Z
 ---------------------------------------------------------------------
      1          7           0       -2.214100   -0.974453    0.010420
      2          6           0       -1.915359    0.215286   -0.317896
      3          6           0       -0.869018    1.039124    0.393146
      4          6           0        0.095896    1.768843   -0.610626
      5          7           0        1.465341    1.281963   -0.341545
      6          6           0        1.303384    0.015152    0.375573
      7          7           0        1.036193   -0.990447   -0.647603
      8          7           0        0.804246   -2.318833   -0.199882
      9          6           0        0.075973    0.213465    1.283087
     10          1           0       -2.954166   -1.342434   -0.589248
     11          1           0       -2.420814    0.748045   -1.138234
     12          1           0       -1.417250    1.786316    0.981246
     13          1           0        0.059912    2.856158   -0.502383
     14          1           0       -0.182220    1.533539   -1.642657
     15          1           0        1.943182    1.937684    0.267192
     16          1           0        2.217108   -0.198250    0.959432
     17          1           0        1.805984   -0.996285   -1.307409
     18          1           0       -0.180180   -2.373127    0.054003
     19          1           0        1.346870   -2.523736    0.642742
     20          1           0        0.380295    0.787419    2.164199
     21          1           0       -0.385749   -0.714156    1.621693
 ---------------------------------------------------------------------

 SCF Done:  E(RB3LYP) =  -416.722662453     A.U. after    1 cycles

 The electronic state is 1-A.
 Alpha  occ. eigenvalues --  -14.32285 -14.31745 -14.31498 -14.31343 -10.22963
 Alpha  occ. eigenvalues --  -10.22617 -10.20633 -10.19205 -10.17304  -0.95692
 Alpha  occ. eigenvalues --   -0.90674  -0.89616  -0.76711  -0.75631  -0.69959
 Alpha  occ. eigenvalues --   -0.62369  -0.58103  -0.53861  -0.52384  -0.49699
 Alpha  occ. eigenvalues --   -0.48036  -0.46400  -0.45484  -0.43757  -0.41422
 Alpha  occ. eigenvalues --   -0.38067  -0.36837  -0.35348  -0.34482  -0.33548
 Alpha  occ. eigenvalues --   -0.30555  -0.26505  -0.23970  -0.22716  -0.22128
 Alpha virt. eigenvalues --    0.00127   0.07016   0.09527   0.10632   0.12432
 Alpha virt. eigenvalues --    0.13232   0.14186   0.14597   0.16199   0.16890
 Alpha virt. eigenvalues --    0.18226   0.18982   0.19940   0.20750   0.21132

 Mulliken charges:
               1
     1  N   -0.388714
     2  C    0.050013
     3  C   -0.027703
     4  C   -0.185233
     5  N   -0.289593
     6  C    0.019214
     7  N   -0.243267
     8  N   -0.480789
     9  C   -0.226022
    10  H    0.226449
    11  H    0.086996
    12  H    0.087633
    13  H    0.097523
    14  H    0.113338
    15  H    0.216522
    16  H    0.041717
    17  H    0.228284
    18  H    0.257253
    19  H    0.210501
    20  H    0.084981
    21  H    0.120896
 Sum of Mulliken charges =  -0.00000

 Dipole moment (field-independent basis, Debye):
    X=             -0.4715    Y=              2.1965    Z=              1.1183  Tot=              2.5095
 Quadrupole moment (field-independent basis, Debye-Ang):
   XX=            -50.5434   YY=            -55.2540   ZZ=            -55.0377
   XY=             -0.4635   XZ=              5.8531   YZ=             -0.4771

  Exact polarizability:  81.494   4.127  89.118   5.410  -2.521  68.499
 Approx polarizability: 112.394   9.272 132.199   5.442  -5.914 105.455

                      1                      2                      3
                      A                      A                      A
 Frequencies --     64.7310               103.4784               118.2375
 Red. masses --      2.6579                 4.6833                 3.0532
 Frc consts  --      0.0066                 0.0295                 0.0251
 IR Inten    --      8.9528                 7.7146                 3.4345

                      4                      5                      6
                      A                      A                      A
 Frequencies --    194.4032               265.4222               306.0843
 Red. masses --      3.0048                 2.9989                 3.1538
 Frc consts  --      0.0669                 0.1245                 0.1741
 IR Inten    --      0.7479                10.5676                 5.2023

                      7                      8                      9
                      A                      A                      A
 Frequencies --    352.0350               409.3070               429.1343
 Red. masses --      2.1054                 1.4983                 1.6487
 Frc consts  --      0.1537                 0.1479                 0.1789
 IR Inten    --      4.8271                10.7320                 9.6201

                     10                     11                     12
                      A                      A                      A
 Frequencies --    495.4453               582.7427               657.4943
 Red. masses --      2.7878                 3.2715                 2.7661
 Frc consts  --      0.4032                 0.6546                 0.7045
 IR Inten    --     10.7171                12.8452                28.0558

                     13                     14                     15
                      A                      A                      A
 Frequencies --    734.1780               774.5125               793.9436
 Red. masses --      2.3708                 2.3261                 1.4846
 Frc consts  --      0.7529                 0.8221                 0.5513
 IR Inten    --     42.5968                68.2185                36.5504

                     16                     17                     18
                      A                      A                      A
 Frequencies --    828.4240               852.1257               856.1247
 Red. masses --      2.3576                 2.1758                 1.8615
 Frc consts  --      0.9533                 0.9308                 0.8039
 IR Inten    --     36.2253                41.3309                18.9443

                     19                     20                     21
                      A                      A                      A
 Frequencies --    925.2934               966.4629               987.0691
 Red. masses --      2.4069                 2.1885                 2.3702
 Frc consts  --      1.2141                 1.2044                 1.3606
 IR Inten    --     19.6023                51.4073                19.7411

                     22                     23                     24
                      A                      A                      A
 Frequencies --   1015.7162              1033.6042              1065.8970
 Red. masses --      1.6001                 1.7746                 1.8590
 Frc consts  --      0.9726                 1.1170                 1.2444
 IR Inten    --     30.9082                 1.8401                15.5607

                     25                     26                     27
                      A                      A                      A
 Frequencies --   1100.9212              1116.3191              1122.1420
 Red. masses --      1.8028                 1.8294                 1.8836
 Frc consts  --      1.2874                 1.3432                 1.3974
 IR Inten    --     18.3738                 3.0577                 6.8973

                     28                     29                     30
                      A                      A                      A
 Frequencies --   1183.0340              1201.3582              1209.0210
 Red. masses --      1.4838                 1.2492                 1.6119
 Frc consts  --      1.2236                 1.0623                 1.3882
 IR Inten    --     40.4049                 4.8329                11.9988

                     31                     32                     33
                      A                      A                      A
 Frequencies --   1235.8350              1259.4370              1299.6477
 Red. masses --      1.2768                 1.3205                 1.4524
 Frc consts  --      1.1489                 1.2340                 1.4454
 IR Inten    --      5.0347                15.8708                21.9725

                     34                     35                     36
                      A                      A                      A
 Frequencies --   1316.1546              1332.7937              1344.2641
 Red. masses --      1.2726                 1.3180                 1.3900
 Frc consts  --      1.2988                 1.3794                 1.4799
 IR Inten    --      4.0970                25.6920                 5.7863

                     37                     38                     39
                      A                      A                      A
 Frequencies --   1380.5700              1387.6995              1424.0036
 Red. masses --      1.3282                 1.5373                 1.4317
 Frc consts  --      1.4915                 1.7442                 1.7105
 IR Inten    --     18.6078                 3.2474                19.9244

                     40                     41                     42
                      A                      A                      A
 Frequencies --   1459.0026              1481.7090              1488.1969
 Red. masses --      1.2516                 1.1348                 1.1455
 Frc consts  --      1.5698                 1.4679                 1.4947
 IR Inten    --      4.9299                 3.1108                 8.7629

                     43                     44                     45
                      A                      A                      A
 Frequencies --   1506.4780              1687.6360              1724.5959
 Red. masses --      1.0890                 1.0874                 6.0642
 Frc consts  --      1.4562                 1.8248                10.6266
 IR Inten    --      0.3742                13.6922                64.1835

                     46                     47                     48
                      A                      A                      A
 Frequencies --   2931.0104              2992.8159              3020.8327
 Red. masses --      1.0836                 1.0857                 1.0824
 Frc consts  --      5.4849                 5.7294                 5.8194
 IR Inten    --     95.4892                49.4391                19.4003

                     49                     50                     51
                      A                      A                      A
 Frequencies --   3047.8664              3059.3843              3090.8437
 Red. masses --      1.0610                 1.0702                 1.1055
 Frc consts  --      5.8070                 5.9016                 6.2226
 IR Inten    --     56.0540                29.2908                32.0593

                     52                     53                     54
                      A                      A                      A
 Frequencies --   3135.0985              3385.0194              3457.8371
 Red. masses --      1.0949                 1.0528                 1.0757
 Frc consts  --      6.3405                 7.1075                 7.5780
 IR Inten    --      5.2068                25.6132                 0.9004

                     55                     56                     57
                      A                      A                      A
 Frequencies --   3504.1452              3527.2886              3531.0851
 Red. masses --      1.0876                 1.0746                 1.0757
 Frc consts  --      7.8681                 7.8776                 7.9027
 IR Inten    --      7.2040                 0.2163                 3.9467

 - Thermochemistry -
 -------------------
 Temperature   298.150 Kelvin.  Pressure   1.00000 Atm.
 Atom     1 has atomic number  7 and mass  14.00307

 Molecular mass:   128.10620 amu.
 Principal axes and moments of inertia in atomic units:
                           1         2         3
     Eigenvalues --   943.124721002.242021566.79823
           X            0.99657  -0.07823   0.02693
           Y            0.07857   0.99684  -0.01164
           Z           -0.02593   0.01372   0.99957
 This molecule is an asymmetric top.
 Rotational symmetry number  1.
 Warning -- assumption of classical behavior for rotation
           may cause significant error
 Rotational temperatures (Kelvin)      0.09184     0.08642     0.05528
 Rotational constants (GHZ):           1.91358     1.80070     1.15187
 Zero-point vibrational energy     489009.0 (Joules/Mol)
                                  116.87595 (Kcal/Mol)
 Warning -- explicit consideration of  11 degrees of freedom as
           vibrations may cause significant error
 Vibrational temperatures:     93.13   148.88   170.12   279.70   381.88
          (Kelvin)            440.39   506.50   588.90   617.43   712.84
                              838.44   945.99  1056.32  1114.35  1142.31
                             1191.92  1226.02  1231.77  1331.29  1390.52
                             1420.17  1461.39  1487.13  1533.59  1583.98
                             1606.13  1614.51  1702.12  1728.49  1739.51
                             1778.09  1812.05  1869.90  1893.65  1917.59
                             1934.10  1986.33  1996.59  2048.82  2099.18
                             2131.85  2141.18  2167.49  2428.13  2481.31
                             4217.07  4305.99  4346.30  4385.20  4401.77
                             4447.03  4510.71  4870.29  4975.06  5041.68
                             5074.98  5080.44

 Zero-point correction=                           0.186254 (Hartree/Particle)
 Thermal correction to Energy=                    0.195164
 Thermal correction to Enthalpy=                  0.196108
 Thermal correction to Gibbs Free Energy=         0.152346
 Sum of electronic and zero-point Energies=           -416.536409
 Sum of electronic and thermal Energies=              -416.527498
 Sum of electronic and thermal Enthalpies=            -416.526554
 Sum of electronic and thermal Free Energies=         -416.570316

                     E (Thermal)             CV                S
                      KCal/Mol        Cal/Mol-Kelvin    Cal/Mol-Kelvin
 Total                  122.467             33.910             92.105
 Electronic               0.000              0.000              0.000
 Translational            0.889              2.981             40.456
 Rotational               0.889              2.981             28.784
 Vibrational            120.690             27.948             22.865
 Vibration     1          0.597              1.971              4.308
 Vibration     2          0.605              1.946              3.388
 Vibration     3          0.608              1.934              3.129
 Vibration     4          0.635              1.848              2.185
 Vibration     5          0.671              1.736              1.626
 Vibration     6          0.696              1.662              1.383
 Vibration     7          0.729              1.571              1.157
 Vibration     8          0.774              1.450              0.929
 Vibration     9          0.790              1.407              0.861
 Vibration    10          0.851              1.260              0.670
 Vibration    11          0.940              1.069              0.480

 Optimization completed.
    -- Stationary point found.
 Normal termination of Gaussian 16 at Mon May 31 15:28:29 2021.
