 Gaussian 16, Revision A.03,
 Gaussian 16:  ES64L-G16RevA.03 25-Dec-2016

 -----------------------------
 # opt freq b3lyp/6-31g(2df,p)
 -----------------------------

 -------------------
 Title Card Required
 -------------------
 Symbolic Z-matrix:
 Charge =  0 Multiplicity = 1

 SCF Done:  E(RB3LYP) =  -501.604783444     A.U. after   15 cycles
 SCF Done:  E(RB3LYP) =  -501.615026017     A.U. after   15 cycles
 SCF Done:  E(RB3LYP) =  -501.624171771     A.U. after   12 cycles
 SCF Done:  E(RB3LYP) =  -501.625494334     A.U. after   11 cycles
 SCF Done:  E(RB3LYP) =  -501.625625063     A.U. after   11 cycles
 SCF Done:  E(RB3LYP) =  -501.625731190     A.U. after   11 cycles
 SCF Done:  E(RB3LYP) =  -501.625735736     A.U. after    8 cycles
 SCF Done:  E(RB3LYP) =  -501.625736283     A.U. after    7 cycles
 Optimization completed.
    -- Stationary point found.
 Normal termination of Gaussian 16 at Mon May 31 22:49:32 2021.

 ----------------------------------------------------------------------
 #N Geom=AllCheck Guess=TCheck SCRF=Check GenChk RB3LYP/6-31G(2df,p) Fr
 eq
 ----------------------------------------------------------------------

 Structure from the checkpoint file:  "NdCCdNNpCNdNpNdN.chk"
 -------------------
 Title Card Required
 -------------------
 Charge =  0 Multiplicity = 1

                         Standard orientation:
 ---------------------------------------------------------------------
 Center     Atomic      Atomic             Coordinates (Angstroms)
 Number     Number       Type             X           Y           Z
 ---------------------------------------------------------------------
      1          7           0       -3.866605    0.213605   -0.000003
      2          6           0       -2.873074   -0.588136    0.000000
      3          6           0       -1.509384   -0.064073   -0.000001
      4          7           0       -0.565673   -0.937093    0.000001
      5          7           0        0.749903   -0.657958    0.000001
      6          6           0        1.512707    0.606496   -0.000001
      7          7           0        0.681164    1.813187    0.000016
      8          7           0        1.388968    2.829911   -0.000012
      9          7           0        1.476885   -1.803351   -0.000000
     10          7           0        2.717420   -1.608631   -0.000000
     11          1           0       -4.746059   -0.306356   -0.000002
     12          1           0       -2.942732   -1.683200    0.000002
     13          1           0       -1.379157    1.010852   -0.000002
     14          1           0        2.168801    0.607291   -0.876985
     15          1           0        2.168816    0.607281    0.876972
     16          1           0        0.744383    3.637407    0.000014
     17          1           0        3.130021   -2.546672   -0.000008
 ---------------------------------------------------------------------

 SCF Done:  E(RB3LYP) =  -501.625736283     A.U. after    1 cycles

 The electronic state is 1-A.
 Alpha  occ. eigenvalues --  -14.43755 -14.42065 -14.41547 -14.40028 -14.38317
 Alpha  occ. eigenvalues --  -14.35933 -14.31719 -10.26948 -10.22842 -10.22016
 Alpha  occ. eigenvalues --   -1.10198  -1.06055  -0.99354  -0.90325  -0.85988
 Alpha  occ. eigenvalues --   -0.79833  -0.70391  -0.66962  -0.60152  -0.56770
 Alpha  occ. eigenvalues --   -0.53364  -0.52202  -0.51750  -0.50148  -0.46199
 Alpha  occ. eigenvalues --   -0.44646  -0.44299  -0.42254  -0.41988  -0.38403
 Alpha  occ. eigenvalues --   -0.37208  -0.32707  -0.29309  -0.26835  -0.25808
 Alpha  occ. eigenvalues --   -0.25077  -0.23623
 Alpha virt. eigenvalues --   -0.07557  -0.05820  -0.01080   0.06598   0.07734
 Alpha virt. eigenvalues --    0.09641   0.10343   0.10631   0.14708   0.16433
 Alpha virt. eigenvalues --    0.16962   0.17734   0.21027   0.24590   0.25105

 Mulliken charges:
               1
     1  N   -0.405968
     2  C    0.015218
     3  C   -0.018311
     4  N   -0.135293
     5  N    0.011012
     6  C   -0.013748
     7  N   -0.138770
     8  N   -0.250113
     9  N   -0.032393
    10  N   -0.355591
    11  H    0.228688
    12  H    0.098554
    13  H    0.145054
    14  H    0.167505
    15  H    0.167507
    16  H    0.262554
    17  H    0.254094
 Sum of Mulliken charges =  -0.00000

 Dipole moment (field-independent basis, Debye):
    X=              0.8104    Y=              0.4183    Z=              0.0000  Tot=              0.9120
 Quadrupole moment (field-independent basis, Debye-Ang):
   XX=            -57.8768   YY=            -52.9075   ZZ=            -56.8821
   XY=              2.0955   XZ=              0.0001   YZ=              0.0001

  Exact polarizability: 156.640 -19.977  95.233  -0.000  -0.000  41.469
 Approx polarizability: 246.719 -48.435 144.248  -0.000  -0.000  67.178

 ******    2 imaginary frequencies (negative Signs) ******

                      1                      2                      3
                      A                      A                      A
 Frequencies --   -140.8059               -91.9240                99.1344
 Red. masses --      8.1292                 2.5426                 5.8447
 Frc consts  --      0.0950                 0.0127                 0.0338
 IR Inten    --      1.6822                 0.5950                 0.5517

                      4                      5                      6
                      A                      A                      A
 Frequencies --    119.7367               135.2540               194.9667
 Red. masses --      5.7554                 2.1303                 4.5430
 Frc consts  --      0.0486                 0.0230                 0.1017
 IR Inten    --      4.9476                 8.8379                 2.2221

                      7                      8                      9
                      A                      A                      A
 Frequencies --    196.7957               313.7410               346.3924
 Red. masses --      5.3820                 6.4027                 5.1383
 Frc consts  --      0.1228                 0.3713                 0.3633
 IR Inten    --      2.2092                 3.1328                 0.9960

                     10                     11                     12
                      A                      A                      A
 Frequencies --    376.9482               377.8130               442.6673
 Red. masses --      4.5542                 4.9187                 7.5561
 Frc consts  --      0.3813                 0.4137                 0.8724
 IR Inten    --     25.6646                20.5357                 9.6850

                     13                     14                     15
                      A                      A                      A
 Frequencies --    503.2029               635.2758               718.5635
 Red. masses --      5.0506                 5.1510                 5.9122
 Frc consts  --      0.7535                 1.2248                 1.7986
 IR Inten    --      6.4048                22.3236                94.9542

                     16                     17                     18
                      A                      A                      A
 Frequencies --    786.3270               804.2554               877.2715
 Red. masses --      1.1775                 1.3216                 5.5090
 Frc consts  --      0.4290                 0.5036                 2.4980
 IR Inten    --     23.3020                45.4544                44.5753

                     19                     20                     21
                      A                      A                      A
 Frequencies --    942.0697               992.3520               998.0763
 Red. masses --      1.1628                 1.5450                 4.4758
 Frc consts  --      0.6080                 0.8964                 2.6269
 IR Inten    --     48.7629                 4.1069               100.5839

                     22                     23                     24
                      A                      A                      A
 Frequencies --   1067.4109              1081.1400              1119.6995
 Red. masses --      2.2068                 1.4115                 1.2387
 Frc consts  --      1.4814                 0.9720                 0.9150
 IR Inten    --    209.8066                30.7666                 5.8470

                     25                     26                     27
                      A                      A                      A
 Frequencies --   1161.6238              1246.4838              1253.0163
 Red. masses --      2.6327                 1.0573                 5.3477
 Frc consts  --      2.0931                 0.9679                 4.9469
 IR Inten    --    134.0879                 1.0650                48.3502

                     28                     29                     30
                      A                      A                      A
 Frequencies --   1260.1117              1330.0292              1375.2583
 Red. masses --      1.2536                 1.3651                 1.4182
 Frc consts  --      1.1728                 1.4228                 1.5803
 IR Inten    --      7.3863                15.4168                 6.6934

                     31                     32                     33
                      A                      A                      A
 Frequencies --   1421.3153              1452.9950              1482.6634
 Red. masses --      1.7980                 1.1891                 1.4916
 Frc consts  --      2.1400                 1.4791                 1.9319
 IR Inten    --     56.1370                30.2067                42.9263

                     34                     35                     36
                      A                      A                      A
 Frequencies --   1489.0415              1554.7846              1663.9976
 Red. masses --      1.2974                 7.5643                10.6479
 Frc consts  --      1.6949                10.7736                17.3708
 IR Inten    --     26.5731               264.4376                 1.4807

                     37                     38                     39
                      A                      A                      A
 Frequencies --   1670.3481              1695.5625              3043.7872
 Red. masses --      8.2022                 6.4517                 1.0582
 Frc consts  --     13.4832                10.9283                 5.7762
 IR Inten    --    102.8074                64.4966                14.6191

                     40                     41                     42
                      A                      A                      A
 Frequencies --   3045.3852              3084.6445              3213.1388
 Red. masses --      1.0865                 1.1052                 1.0903
 Frc consts  --      5.9371                 6.1957                 6.6323
 IR Inten    --     28.1356                 2.2082                 0.6526

                     43                     44                     45
                      A                      A                      A
 Frequencies --   3284.4181              3401.9166              3459.1283
 Red. masses --      1.0747                 1.0750                 1.0756
 Frc consts  --      6.8308                 7.3302                 7.5828
 IR Inten    --     10.1007                 1.7339                 1.0463

 - Thermochemistry -
 -------------------
 Temperature   298.150 Kelvin.  Pressure   1.00000 Atm.
 Atom     1 has atomic number  7 and mass  14.00307

 Molecular mass:   141.07629 amu.
 Principal axes and moments of inertia in atomic units:
                           1         2         3
     Eigenvalues --  1048.746862134.944203172.61919
           X            0.99997   0.00778  -0.00000
           Y           -0.00778   0.99997   0.00000
           Z            0.00000  -0.00000   1.00000
 This molecule is an asymmetric top.
 Rotational symmetry number  1.
 Warning -- assumption of classical behavior for rotation
           may cause significant error
 Rotational temperatures (Kelvin)      0.08259     0.04057     0.02730
 Rotational constants (GHZ):           1.72085     0.84533     0.56885
    2 imaginary frequencies ignored.
 Zero-point vibrational energy     333272.1 (Joules/Mol)
                                   79.65394 (Kcal/Mol)
 Warning -- explicit consideration of  11 degrees of freedom as
           vibrations may cause significant error
 Vibrational temperatures:    142.63   172.27   194.60   280.51   283.15
          (Kelvin)            451.40   498.38   542.34   543.59   636.90
                              724.00   914.02  1033.85  1131.35  1157.14
                             1262.20  1355.43  1427.77  1436.01  1535.77
                             1555.52  1611.00  1671.32  1793.41  1802.81
                             1813.02  1913.62  1978.69  2044.96  2090.54
                             2133.22  2142.40  2236.99  2394.12  2403.26
                             2439.54  4379.33  4381.63  4438.12  4622.99
                             4725.55  4894.60  4976.91

 Zero-point correction=                           0.126937 (Hartree/Particle)
 Thermal correction to Energy=                    0.135708
 Thermal correction to Enthalpy=                  0.136653
 Thermal correction to Gibbs Free Energy=         0.092466
 Sum of electronic and zero-point Energies=           -501.498800
 Sum of electronic and thermal Energies=              -501.490028
 Sum of electronic and thermal Enthalpies=            -501.489084
 Sum of electronic and thermal Free Energies=         -501.533270

                     E (Thermal)             CV                S
                      KCal/Mol        Cal/Mol-Kelvin    Cal/Mol-Kelvin
 Total                   85.158             31.545             92.999
 Electronic               0.000              0.000              0.000
 Translational            0.889              2.981             40.744
 Rotational               0.889              2.981             30.342
 Vibrational             83.381             25.584             21.913
 Vibration     1          0.604              1.950              3.471
 Vibration     2          0.609              1.933              3.105
 Vibration     3          0.613              1.918              2.870
 Vibration     4          0.636              1.847              2.180
 Vibration     5          0.636              1.844              2.163
 Vibration     6          0.702              1.647              1.343
 Vibration     7          0.724              1.583              1.183
 Vibration     8          0.748              1.519              1.051
 Vibration     9          0.748              1.517              1.048
 Vibration    10          0.802              1.377              0.818
 Vibration    11          0.859              1.243              0.650

 Optimization completed.
    -- Stationary point found.
 Normal termination of Gaussian 16 at Mon May 31 23:20:19 2021.
