 Gaussian 16, Revision A.03,
 Gaussian 16:  ES64L-G16RevA.03 25-Dec-2016

 -----------------------------
 # opt freq b3lyp/6-31g(2df,p)
 -----------------------------

 -------------------
 Title Card Required
 -------------------
 Symbolic Z-matrix:
 Charge =  0 Multiplicity = 1

 SCF Done:  E(RB3LYP) =  -339.277995371     A.U. after   13 cycles
 SCF Done:  E(RB3LYP) =  -339.288655039     A.U. after   12 cycles
 SCF Done:  E(RB3LYP) =  -339.292215383     A.U. after   12 cycles
 SCF Done:  E(RB3LYP) =  -339.294721148     A.U. after   13 cycles
 SCF Done:  E(RB3LYP) =  -339.295942768     A.U. after   14 cycles
 SCF Done:  E(RB3LYP) =  -339.296339302     A.U. after   12 cycles
 SCF Done:  E(RB3LYP) =  -339.296573425     A.U. after   11 cycles
 SCF Done:  E(RB3LYP) =  -339.296644730     A.U. after   10 cycles
 SCF Done:  E(RB3LYP) =  -339.296677865     A.U. after   10 cycles
 SCF Done:  E(RB3LYP) =  -339.296690377     A.U. after   10 cycles
 SCF Done:  E(RB3LYP) =  -339.296696225     A.U. after   10 cycles
 SCF Done:  E(RB3LYP) =  -339.296697165     A.U. after    8 cycles
 SCF Done:  E(RB3LYP) =  -339.296697537     A.U. after    8 cycles
 SCF Done:  E(RB3LYP) =  -339.296698162     A.U. after    9 cycles
 SCF Done:  E(RB3LYP) =  -339.296698372     A.U. after    8 cycles
 SCF Done:  E(RB3LYP) =  -339.296698448     A.U. after    7 cycles
 Optimization completed.
    -- Stationary point found.
 Normal termination of Gaussian 16 at Mon May 31 23:30:57 2021.

 ----------------------------------------------------------------------
 #N Geom=AllCheck Guess=TCheck SCRF=Check GenChk RB3LYP/6-31G(2df,p) Fr
 eq
 ----------------------------------------------------------------------

 Structure from the checkpoint file:  "NdCCpCNpNN.chk"
 -------------------
 Title Card Required
 -------------------
 Charge =  0 Multiplicity = 1

                         Standard orientation:
 ---------------------------------------------------------------------
 Center     Atomic      Atomic             Coordinates (Angstroms)
 Number     Number       Type             X           Y           Z
 ---------------------------------------------------------------------
      1          7           0        1.274833   -2.077865    0.340480
      2          6           0        1.008871   -1.030035   -0.322866
      3          6           0       -0.058323   -0.071631    0.162165
      4          6           0        0.242016    1.354956   -0.302697
      5          7           0        1.556193    1.765870    0.197411
      6          7           0       -1.344865   -0.542645   -0.375677
      7          7           0       -2.503779    0.056991    0.202680
      8          1           0        1.977807   -2.644436   -0.139595
      9          1           0        1.472182   -0.771667   -1.283787
     10          1           0       -0.053231   -0.102858    1.268745
     11          1           0       -0.585257    2.017758   -0.001537
     12          1           0        0.269897    1.360768   -1.399099
     13          1           0        1.539683    1.823111    1.211791
     14          1           0        1.784172    2.696359   -0.137407
     15          1           0       -1.414425   -1.537960   -0.191485
     16          1           0       -2.683347    0.927879   -0.286127
     17          1           0       -2.339536    0.294850    1.184628
 ---------------------------------------------------------------------

 SCF Done:  E(RB3LYP) =  -339.296698448     A.U. after    1 cycles

 The electronic state is 1-A.
 Alpha  occ. eigenvalues --  -14.33798 -14.33466 -14.31629 -14.31577 -10.22640
 Alpha  occ. eigenvalues --  -10.21158 -10.20968  -0.95950  -0.90067  -0.88344
 Alpha  occ. eigenvalues --   -0.78632  -0.70255  -0.62758  -0.56301  -0.50799
 Alpha  occ. eigenvalues --   -0.49969  -0.49040  -0.46642  -0.46009  -0.42772
 Alpha  occ. eigenvalues --   -0.40766  -0.36657  -0.35636  -0.31731  -0.26889
 Alpha  occ. eigenvalues --   -0.24871  -0.24142  -0.23301
 Alpha virt. eigenvalues --   -0.00295   0.07463   0.08226   0.10022   0.11594
 Alpha virt. eigenvalues --    0.13920   0.15091   0.15283   0.17364   0.18177
 Alpha virt. eigenvalues --    0.19546   0.22128   0.23512   0.25602   0.26172

 Mulliken charges:
               1
     1  N   -0.394170
     2  C    0.042903
     3  C    0.048666
     4  C   -0.158312
     5  N   -0.507454
     6  N   -0.291250
     7  N   -0.467724
     8  H    0.226078
     9  H    0.095726
    10  H    0.062434
    11  H    0.071210
    12  H    0.111390
    13  H    0.228886
    14  H    0.231058
    15  H    0.240975
    16  H    0.243165
    17  H    0.216419
 Sum of Mulliken charges =   0.00000

 Dipole moment (field-independent basis, Debye):
    X=              0.7075    Y=              2.4674    Z=             -0.0022  Tot=              2.5669
 Quadrupole moment (field-independent basis, Debye-Ang):
   XX=            -47.2697   YY=            -38.2147   ZZ=            -42.4566
   XY=             -2.4965   XZ=             -3.2021   YZ=              3.6199

  Exact polarizability:  66.691  -6.117  68.991  -1.559  -2.452  52.912
 Approx polarizability:  87.368  -8.687  95.316  -0.261  -7.320  83.855

                      1                      2                      3
                      A                      A                      A
 Frequencies --     28.3717               111.2767               125.9693
 Red. masses --      3.7392                 2.6625                 2.6668
 Frc consts  --      0.0018                 0.0194                 0.0249
 IR Inten    --      6.5080                 5.8505                 6.7867

                      4                      5                      6
                      A                      A                      A
 Frequencies --    218.3644               235.6429               255.6392
 Red. masses --      2.5858                 1.2075                 2.4736
 Frc consts  --      0.0726                 0.0395                 0.0952
 IR Inten    --     10.4545                23.2464                14.7774

                      7                      8                      9
                      A                      A                      A
 Frequencies --    313.1367               377.8794               447.1151
 Red. masses --      1.8497                 1.5100                 2.6047
 Frc consts  --      0.1069                 0.1270                 0.3068
 IR Inten    --     28.7551                13.9045                15.4575

                     10                     11                     12
                      A                      A                      A
 Frequencies --    518.1943               549.4926               747.8024
 Red. masses --      3.3950                 3.0774                 1.9762
 Frc consts  --      0.5371                 0.5475                 0.6511
 IR Inten    --      4.5153                11.2354                 6.7517

                     13                     14                     15
                      A                      A                      A
 Frequencies --    831.9657               857.8244               901.3040
 Red. masses --      1.3145                 1.6772                 1.7676
 Frc consts  --      0.5361                 0.7272                 0.8460
 IR Inten    --    142.0419               119.5069                 0.2633

                     16                     17                     18
                      A                      A                      A
 Frequencies --    943.5356               995.9496              1077.7991
 Red. masses --      1.5242                 1.7258                 1.7713
 Frc consts  --      0.7995                 1.0086                 1.2123
 IR Inten    --     85.4753                21.3943                42.3224

                     19                     20                     21
                      A                      A                      A
 Frequencies --   1086.2952              1115.0058              1125.8288
 Red. masses --      2.8846                 1.2604                 2.0412
 Frc consts  --      2.0056                 0.9233                 1.5244
 IR Inten    --     12.5568                 6.6265                 1.2287

                     22                     23                     24
                      A                      A                      A
 Frequencies --   1150.5343              1203.1629              1254.1228
 Red. masses --      1.7689                 1.6873                 1.2934
 Frc consts  --      1.3796                 1.4391                 1.1986
 IR Inten    --     39.0065                 5.8347                20.9917

                     25                     26                     27
                      A                      A                      A
 Frequencies --   1284.3042              1302.4112              1340.1733
 Red. masses --      1.1614                 1.2666                 1.3448
 Frc consts  --      1.1287                 1.2659                 1.4230
 IR Inten    --     14.6598                 4.8485                 1.6662

                     28                     29                     30
                      A                      A                      A
 Frequencies --   1369.0271              1417.5868              1426.7799
 Red. masses --      1.3144                 1.5066                 1.4963
 Frc consts  --      1.4514                 1.7838                 1.7946
 IR Inten    --      5.5165                17.9372                14.5453

                     31                     32                     33
                      A                      A                      A
 Frequencies --   1516.8738              1522.5942              1657.8891
 Red. masses --      1.0857                 1.1596                 1.0900
 Frc consts  --      1.4719                 1.5839                 1.7651
 IR Inten    --      1.5396                 2.8146                26.7585

                     34                     35                     36
                      A                      A                      A
 Frequencies --   1680.6789              1730.7677              2915.8139
 Red. masses --      1.0688                 6.7441                 1.0806
 Frc consts  --      1.7788                11.9029                 5.4127
 IR Inten    --     14.0906                54.9643                50.2307

                     37                     38                     39
                      A                      A                      A
 Frequencies --   2964.8509              3034.4508              3053.1561
 Red. masses --      1.0702                 1.0878                 1.0904
 Frc consts  --      5.5426                 5.9017                 5.9889
 IR Inten    --     70.3542                35.0421                38.4379

                     40                     41                     42
                      A                      A                      A
 Frequencies --   3384.9544              3442.5346              3492.4727
 Red. masses --      1.0564                 1.0757                 1.0496
 Frc consts  --      7.1314                 7.5109                 7.5431
 IR Inten    --     15.0114                 1.5141                 0.1761

                     43                     44                     45
                      A                      A                      A
 Frequencies --   3518.3409              3546.2433              3572.6013
 Red. masses --      1.0761                 1.0829                 1.0920
 Frc consts  --      7.8484                 8.0240                 8.2122
 IR Inten    --      2.7953                 0.8142                 0.5110

 - Thermochemistry -
 -------------------
 Temperature   298.150 Kelvin.  Pressure   1.00000 Atm.
 Atom     1 has atomic number  7 and mass  14.00307

 Molecular mass:   102.09055 amu.
 Principal axes and moments of inertia in atomic units:
                           1         2         3
     Eigenvalues --   665.11597 804.771971358.17423
           X            0.99981  -0.01362  -0.01396
           Y            0.01376   0.99986   0.00997
           Z            0.01382  -0.01016   0.99985
 This molecule is an asymmetric top.
 Rotational symmetry number  1.
 Warning -- assumption of classical behavior for rotation
           may cause significant error
 Rotational temperatures (Kelvin)      0.13022     0.10763     0.06377
 Rotational constants (GHZ):           2.71342     2.24255     1.32880
 Zero-point vibrational energy     392654.6 (Joules/Mol)
                                   93.84669 (Kcal/Mol)
 Warning -- explicit consideration of  11 degrees of freedom as
           vibrations may cause significant error
 Vibrational temperatures:     40.82   160.10   181.24   314.18   339.04
          (Kelvin)            367.81   450.53   543.68   643.30   745.57
                              790.60  1075.92  1197.01  1234.22  1296.78
                             1357.54  1432.95  1550.71  1562.94  1604.24
                             1619.82  1655.36  1731.08  1804.40  1847.83
                             1873.88  1928.21  1969.72  2039.59  2052.82
                             2182.44  2190.67  2385.33  2418.12  2490.19
                             4195.21  4265.76  4365.90  4392.81  4870.19
                             4953.04  5024.89  5062.11  5102.25  5140.18

 Zero-point correction=                           0.149554 (Hartree/Particle)
 Thermal correction to Energy=                    0.158173
 Thermal correction to Enthalpy=                  0.159117
 Thermal correction to Gibbs Free Energy=         0.115688
 Sum of electronic and zero-point Energies=           -339.147144
 Sum of electronic and thermal Energies=              -339.138525
 Sum of electronic and thermal Enthalpies=            -339.137581
 Sum of electronic and thermal Free Energies=         -339.181010

                     E (Thermal)             CV                S
                      KCal/Mol        Cal/Mol-Kelvin    Cal/Mol-Kelvin
 Total                   99.255             30.006             91.404
 Electronic               0.000              0.000              0.000
 Translational            0.889              2.981             39.780
 Rotational               0.889              2.981             28.077
 Vibrational             97.478             24.044             23.547
 Vibration     1          0.593              1.984              5.940
 Vibration     2          0.607              1.940              3.247
 Vibration     3          0.611              1.927              3.007
 Vibration     4          0.646              1.813              1.973
 Vibration     5          0.655              1.786              1.836
 Vibration     6          0.666              1.753              1.691
 Vibration     7          0.701              1.649              1.346
 Vibration     8          0.748              1.517              1.048
 Vibration     9          0.806              1.367              0.805
 Vibration    10          0.873              1.210              0.614
 Vibration    11          0.905              1.141              0.545

 Optimization completed.
    -- Stationary point found.
 Normal termination of Gaussian 16 at Mon May 31 23:48:33 2021.
