 Gaussian 16, Revision A.03,
 Gaussian 16:  ES64L-G16RevA.03 25-Dec-2016

 -----------------------------
 # opt freq b3lyp/6-31g(2df,p)
 -----------------------------

 -------------------
 Title Card Required
 -------------------
 Symbolic Z-matrix:
 Charge =  0 Multiplicity = 1

 SCF Done:  E(RB3LYP) =  -464.691553754     A.U. after   15 cycles
 SCF Done:  E(RB3LYP) =  -464.711015533     A.U. after   13 cycles
 SCF Done:  E(RB3LYP) =  -464.715191571     A.U. after   13 cycles
 SCF Done:  E(RB3LYP) =  -464.716114444     A.U. after   13 cycles
 SCF Done:  E(RB3LYP) =  -464.716550082     A.U. after   13 cycles
 SCF Done:  E(RB3LYP) =  -464.717378669     A.U. after   13 cycles
 SCF Done:  E(RB3LYP) =  -464.720150621     A.U. after   16 cycles
 SCF Done:  E(RB3LYP) =  -464.687680982     A.U. after   14 cycles
 SCF Done:  E(RB3LYP) =  -464.724253854     A.U. after   14 cycles
 SCF Done:  E(RB3LYP) =  -464.727779847     A.U. after   16 cycles
 SCF Done:  E(RB3LYP) =  -464.734048958     A.U. after   14 cycles
 SCF Done:  E(RB3LYP) =  -464.735015170     A.U. after   13 cycles
 SCF Done:  E(RB3LYP) =  -464.735145763     A.U. after   12 cycles
 SCF Done:  E(RB3LYP) =  -464.735208674     A.U. after   12 cycles
 SCF Done:  E(RB3LYP) =  -464.735221853     A.U. after   10 cycles
 SCF Done:  E(RB3LYP) =  -464.735229846     A.U. after   11 cycles
 SCF Done:  E(RB3LYP) =  -464.735233002     A.U. after   11 cycles
 SCF Done:  E(RB3LYP) =  -464.735233457     A.U. after    8 cycles
 SCF Done:  E(RB3LYP) =  -464.735233594     A.U. after    7 cycles
 Optimization completed.
    -- Stationary point found.
 Normal termination of Gaussian 16 at Mon May 31 22:34:17 2021.

 ----------------------------------------------------------------------
 #N Geom=AllCheck Guess=TCheck SCRF=Check GenChk RB3LYP/6-31G(2df,p) Fr
 eq
 ----------------------------------------------------------------------

 Structure from the checkpoint file:  "NdCCpNdNpNNNN.chk"
 -------------------
 Title Card Required
 -------------------
 Charge =  0 Multiplicity = 1

                         Standard orientation:
 ---------------------------------------------------------------------
 Center     Atomic      Atomic             Coordinates (Angstroms)
 Number     Number       Type             X           Y           Z
 ---------------------------------------------------------------------
      1          7           0        3.038050   -1.165281    0.173960
      2          6           0        2.140656   -0.572041   -0.494780
      3          6           0        0.998502    0.111184    0.223989
      4          7           0        0.616520    1.313548   -0.547675
      5          7           0        0.512723    2.310548    0.185148
      6          7           0       -0.138062   -0.815552    0.203928
      7          7           0       -1.292670   -0.373374    0.924568
      8          7           0       -2.281394    0.198851    0.068591
      9          7           0       -2.971296   -0.792472   -0.677196
     10          1           0        3.714799   -1.618990   -0.443974
     11          1           0        2.077158   -0.536446   -1.588881
     12          1           0        1.305460    0.404566    1.239803
     13          1           0        0.237787    3.100772   -0.424325
     14          1           0        0.168058   -1.695329    0.607427
     15          1           0       -1.041443    0.354298    1.593494
     16          1           0       -1.821887    0.782071   -0.629781
     17          1           0       -3.566356   -1.285700   -0.017093
     18          1           0       -2.295612   -1.473968   -1.031194
 ---------------------------------------------------------------------

 SCF Done:  E(RB3LYP) =  -464.735233594     A.U. after    1 cycles

 The electronic state is 1-A.
 Alpha  occ. eigenvalues --  -14.40264 -14.39526 -14.37058 -14.36178 -14.36071
 Alpha  occ. eigenvalues --  -14.33874 -14.32680 -10.25343 -10.24861  -1.05431
 Alpha  occ. eigenvalues --   -1.01793  -0.93749  -0.91501  -0.82398  -0.75801
 Alpha  occ. eigenvalues --   -0.68387  -0.64559  -0.58044  -0.54552  -0.52166
 Alpha  occ. eigenvalues --   -0.51219  -0.49699  -0.48186  -0.47651  -0.44195
 Alpha  occ. eigenvalues --   -0.43365  -0.40364  -0.38916  -0.34193  -0.28605
 Alpha  occ. eigenvalues --   -0.27952  -0.26366  -0.25329  -0.24786  -0.23635
 Alpha virt. eigenvalues --   -0.06808  -0.02040   0.08327   0.08633   0.09575
 Alpha virt. eigenvalues --    0.10983   0.12160   0.13604   0.15067   0.15844
 Alpha virt. eigenvalues --    0.17137   0.18093   0.19661   0.22150   0.23312

 Mulliken charges:
               1
     1  N   -0.376499
     2  C    0.010183
     3  C    0.079515
     4  N   -0.113173
     5  N   -0.265939
     6  N   -0.278411
     7  N   -0.266473
     8  N   -0.232564
     9  N   -0.436029
    10  H    0.236423
    11  H    0.115796
    12  H    0.092527
    13  H    0.254163
    14  H    0.249123
    15  H    0.239654
    16  H    0.230164
    17  H    0.239317
    18  H    0.222223
 Sum of Mulliken charges =  -0.00000

 Dipole moment (field-independent basis, Debye):
    X=              1.9315    Y=             -0.3636    Z=             -1.0297  Tot=              2.2188
 Quadrupole moment (field-independent basis, Debye-Ang):
   XX=            -58.7241   YY=            -46.2164   ZZ=            -54.8493
   XY=              0.4821   XZ=             -6.9004   YZ=             -0.0583

  Exact polarizability:  90.905  -7.028  78.531   1.973   0.638  59.029
 Approx polarizability: 118.984 -12.312 117.923   5.442   2.201  95.958

                      1                      2                      3
                      A                      A                      A
 Frequencies --     39.4156                66.2601                68.8193
 Red. masses --      5.1977                 3.9913                 5.2879
 Frc consts  --      0.0048                 0.0103                 0.0148
 IR Inten    --      6.1579                 2.9078                 1.7627

                      4                      5                      6
                      A                      A                      A
 Frequencies --     89.7875               143.1677               237.1191
 Red. masses --      4.8457                 2.9939                 4.6853
 Frc consts  --      0.0230                 0.0362                 0.1552
 IR Inten    --      0.1146                 3.0467                13.8134

                      7                      8                      9
                      A                      A                      A
 Frequencies --    267.1198               353.8761               372.5833
 Red. masses --      2.4284                 2.2016                 2.3308
 Frc consts  --      0.1021                 0.1624                 0.1906
 IR Inten    --     16.2945                 6.5830                 6.9788

                     10                     11                     12
                      A                      A                      A
 Frequencies --    418.6777               500.0707               534.1051
 Red. masses --      2.2340                 3.2779                 2.8220
 Frc consts  --      0.2307                 0.4830                 0.4743
 IR Inten    --     16.0994                22.4182                16.8518

                     13                     14                     15
                      A                      A                      A
 Frequencies --    567.1309               596.3471               718.1768
 Red. masses --      3.3934                 2.1878                 2.4304
 Frc consts  --      0.6431                 0.4584                 0.7386
 IR Inten    --     37.2107                47.9048                 4.0561

                     16                     17                     18
                      A                      A                      A
 Frequencies --    791.0065               823.7433               877.5432
 Red. masses --      3.0808                 1.5400                 2.5593
 Frc consts  --      1.1357                 0.6157                 1.1612
 IR Inten    --     42.4757                72.2936                62.5947

                     19                     20                     21
                      A                      A                      A
 Frequencies --    920.3017               961.3911              1033.9162
 Red. masses --      1.8400                 3.8923                 1.6435
 Frc consts  --      0.9182                 2.1196                 1.0351
 IR Inten    --     55.5074                76.3305                17.2364

                     22                     23                     24
                      A                      A                      A
 Frequencies --   1056.8228              1099.6573              1110.5279
 Red. masses --      1.6953                 2.1936                 2.0464
 Frc consts  --      1.1156                 1.5628                 1.4869
 IR Inten    --     28.5847                26.9918                46.7583

                     25                     26                     27
                      A                      A                      A
 Frequencies --   1118.2350              1127.1157              1214.9345
 Red. masses --      1.7664                 1.2811                 1.9048
 Frc consts  --      1.3013                 0.9589                 1.6566
 IR Inten    --     15.5141                26.7098                53.0926

                     28                     29                     30
                      A                      A                      A
 Frequencies --   1245.5254              1311.2082              1332.0191
 Red. masses --      1.3283                 1.3247                 1.2492
 Frc consts  --      1.2141                 1.3419                 1.3059
 IR Inten    --     15.8677                 9.1554                22.4694

                     31                     32                     33
                      A                      A                      A
 Frequencies --   1347.6232              1406.2256              1472.0941
 Red. masses --      1.2630                 1.5133                 1.1806
 Frc consts  --      1.3514                 1.7632                 1.5074
 IR Inten    --      3.5183                27.4239                 4.4219

                     34                     35                     36
                      A                      A                      A
 Frequencies --   1486.7792              1490.9945              1533.3878
 Red. masses --      1.1299                 1.2956                 1.1171
 Frc consts  --      1.4715                 1.6969                 1.5475
 IR Inten    --      1.5752                39.4330                 0.6592

                     37                     38                     39
                      A                      A                      A
 Frequencies --   1639.3984              1678.7915              1733.4774
 Red. masses --      9.9410                 1.0649                 6.9052
 Frc consts  --     15.7416                 1.7682                12.2253
 IR Inten    --      8.5637                12.7348                64.4820

                     40                     41                     42
                      A                      A                      A
 Frequencies --   2990.4542              3053.1234              3257.7282
 Red. masses --      1.0833                 1.0886                 1.0739
 Frc consts  --      5.7080                 5.9788                 6.7152
 IR Inten    --     22.7764                28.8891                14.8718

                     43                     44                     45
                      A                      A                      A
 Frequencies --   3402.5365              3448.0283              3449.7178
 Red. masses --      1.0539                 1.0758                 1.0738
 Frc consts  --      7.1888                 7.5359                 7.5293
 IR Inten    --      9.0259                 0.1083                 4.5839

                     46                     47                     48
                      A                      A                      A
 Frequencies --   3452.0198              3518.3287              3535.3235
 Red. masses --      1.0745                 1.0753                 1.0856
 Frc consts  --      7.5439                 7.8423                 7.9944
 IR Inten    --      0.9059                 8.3506                 0.8606

 - Thermochemistry -
 -------------------
 Temperature   298.150 Kelvin.  Pressure   1.00000 Atm.
 Atom     1 has atomic number  7 and mass  14.00307

 Molecular mass:   131.09194 amu.
 Principal axes and moments of inertia in atomic units:
                           1         2         3
     Eigenvalues --   712.163571801.729762252.93671
           X            0.99999   0.00019  -0.00324
           Y           -0.00015   0.99994   0.01062
           Z            0.00324  -0.01062   0.99994
 This molecule is an asymmetric top.
 Rotational symmetry number  1.
 Warning -- assumption of classical behavior for rotation
           may cause significant error
 Rotational temperatures (Kelvin)      0.12162     0.04807     0.03844
 Rotational constants (GHZ):           2.53417     1.00167     0.80106
 Zero-point vibrational energy     388144.2 (Joules/Mol)
                                   92.76868 (Kcal/Mol)
 Warning -- explicit consideration of  14 degrees of freedom as
           vibrations may cause significant error
 Vibrational temperatures:     56.71    95.33    99.02   129.18   205.99
          (Kelvin)            341.16   384.33   509.15   536.06   602.38
                              719.49   768.46   815.97   858.01  1033.30
                             1138.08  1185.18  1262.59  1324.11  1383.23
                             1487.57  1520.53  1582.16  1597.80  1608.89
                             1621.67  1748.02  1792.03  1886.54  1916.48
                             1938.93  2023.24  2118.02  2139.14  2145.21
                             2206.20  2358.73  2415.41  2494.09  4302.60
                             4392.76  4687.14  4895.49  4960.94  4963.37
                             4966.69  5062.09  5086.54

 Zero-point correction=                           0.147836 (Hartree/Particle)
 Thermal correction to Energy=                    0.157912
 Thermal correction to Enthalpy=                  0.158856
 Thermal correction to Gibbs Free Energy=         0.111062
 Sum of electronic and zero-point Energies=           -464.587397
 Sum of electronic and thermal Energies=              -464.577322
 Sum of electronic and thermal Enthalpies=            -464.576378
 Sum of electronic and thermal Free Energies=         -464.624171

                     E (Thermal)             CV                S
                      KCal/Mol        Cal/Mol-Kelvin    Cal/Mol-Kelvin
 Total                   99.091             34.892            100.590
 Electronic               0.000              0.000              0.000
 Translational            0.889              2.981             40.525
 Rotational               0.889              2.981             29.448
 Vibrational             97.314             28.930             30.617
 Vibration     1          0.594              1.981              5.288
 Vibration     2          0.598              1.970              4.261
 Vibration     3          0.598              1.969              4.187
 Vibration     4          0.602              1.956              3.665
 Vibration     5          0.616              1.910              2.761
 Vibration     6          0.656              1.784              1.824
 Vibration     7          0.672              1.733              1.615
 Vibration     8          0.730              1.567              1.149
 Vibration     9          0.744              1.528              1.069
 Vibration    10          0.782              1.430              0.896
 Vibration    11          0.855              1.250              0.658
 Vibration    12          0.889              1.175              0.578
 Vibration    13          0.923              1.102              0.510
 Vibration    14          0.954              1.040              0.456

 Optimization completed.
    -- Stationary point found.
 Normal termination of Gaussian 16 at Mon May 31 22:57:31 2021.
