 Gaussian 16, Revision A.03,
 Gaussian 16:  ES64L-G16RevA.03 25-Dec-2016

 -----------------------------
 # opt freq b3lyp/6-31g(2df,p)
 -----------------------------

 -------------------
 Title Card Required
 -------------------
 Symbolic Z-matrix:
 Charge =  0 Multiplicity = 1

 SCF Done:  E(RB3LYP) =  -433.938491138     A.U. after   13 cycles
 SCF Done:  E(RB3LYP) =  -433.953503391     A.U. after   12 cycles
 SCF Done:  E(RB3LYP) =  -433.961362171     A.U. after   11 cycles
 SCF Done:  E(RB3LYP) =  -433.966248169     A.U. after   12 cycles
 SCF Done:  E(RB3LYP) =  -433.968987611     A.U. after   11 cycles
 SCF Done:  E(RB3LYP) =  -433.972630640     A.U. after   11 cycles
 SCF Done:  E(RB3LYP) =  -433.974295476     A.U. after   12 cycles
 SCF Done:  E(RB3LYP) =  -433.975114416     A.U. after   10 cycles
 SCF Done:  E(RB3LYP) =  -433.975305377     A.U. after   10 cycles
 SCF Done:  E(RB3LYP) =  -433.975375052     A.U. after    9 cycles
 SCF Done:  E(RB3LYP) =  -433.977761695     A.U. after    9 cycles
 SCF Done:  E(RB3LYP) =  -433.977770552     A.U. after    9 cycles
 SCF Done:  E(RB3LYP) =  -433.977784178     A.U. after   10 cycles
 SCF Done:  E(RB3LYP) =  -433.977794969     A.U. after   10 cycles
 SCF Done:  E(RB3LYP) =  -433.977800550     A.U. after   10 cycles
 SCF Done:  E(RB3LYP) =  -433.977801163     A.U. after    9 cycles
 SCF Done:  E(RB3LYP) =  -433.977801292     A.U. after    7 cycles
 SCF Done:  E(RB3LYP) =  -433.977801324     A.U. after    7 cycles
 SCF Done:  E(RB3LYP) =  -433.977801327     A.U. after    6 cycles
 Optimization completed.
    -- Stationary point found.
 Normal termination of Gaussian 16 at Mon May 31 16:37:19 2021.

 ----------------------------------------------------------------------
 #N Geom=AllCheck Guess=TCheck SCRF=Check GenChk RB3LYP/6-31G(2df,p) Fr
 eq
 ----------------------------------------------------------------------

 Structure from the checkpoint file:  "NdCCCCpNppNpNN.chk"
 -------------------
 Title Card Required
 -------------------
 Charge =  0 Multiplicity = 1

                         Standard orientation:
 ---------------------------------------------------------------------
 Center     Atomic      Atomic             Coordinates (Angstroms)
 Number     Number       Type             X           Y           Z
 ---------------------------------------------------------------------
      1          7           0        3.926275   -0.032875   -0.496942
      2          6           0        2.963714   -0.364725    0.260288
      3          6           0        1.656232    0.377756    0.251250
      4          6           0        0.474501   -0.550918   -0.071313
      5          6           0       -0.923049    0.103092    0.002413
      6          7           0       -1.232499    0.757462    1.296996
      7          7           0       -1.069425    1.066651   -1.077683
      8          7           0       -1.883410   -0.983924   -0.225386
      9          7           0       -3.255708   -0.593704   -0.199055
     10          1           0        4.728811   -0.650515   -0.355932
     11          1           0        3.008629   -1.211884    0.963247
     12          1           0        1.747083    1.192380   -0.473898
     13          1           0        1.506378    0.824257    1.244693
     14          1           0        0.484198   -1.394824    0.632322
     15          1           0        0.589613   -0.972296   -1.073549
     16          1           0       -0.686982    1.605596    1.416339
     17          1           0       -1.011310    0.145671    2.079552
     18          1           0       -0.275368    1.696692   -1.102849
     19          1           0       -1.891133    1.637218   -0.902989
     20          1           0       -1.766128   -1.684790    0.500494
     21          1           0       -3.481947   -0.252838   -1.128336
     22          1           0       -3.376863    0.178834    0.459568
 ---------------------------------------------------------------------

 SCF Done:  E(RB3LYP) =  -433.977801328     A.U. after    1 cycles

 The electronic state is 1-A.
 Alpha  occ. eigenvalues --  -14.32828 -14.32088 -14.31910 -14.31887 -14.31224
 Alpha  occ. eigenvalues --  -10.26665 -10.23456 -10.19630 -10.19066  -0.97209
 Alpha  occ. eigenvalues --   -0.90508  -0.89802  -0.84134  -0.78581  -0.75242
 Alpha  occ. eigenvalues --   -0.66506  -0.58794  -0.56720  -0.51487  -0.50740
 Alpha  occ. eigenvalues --   -0.49912  -0.48531  -0.46568  -0.45804  -0.43313
 Alpha  occ. eigenvalues --   -0.41680  -0.40894  -0.38189  -0.36397  -0.35509
 Alpha  occ. eigenvalues --   -0.31153  -0.26523  -0.25654  -0.25536  -0.23842
 Alpha  occ. eigenvalues --   -0.23355
 Alpha virt. eigenvalues --   -0.00332   0.05344   0.08512   0.09720   0.10854
 Alpha virt. eigenvalues --    0.11608   0.13709   0.14211   0.15845   0.15997
 Alpha virt. eigenvalues --    0.16794   0.17309   0.18335   0.20052   0.21089

 Mulliken charges:
               1
     1  N   -0.374552
     2  C    0.040040
     3  C   -0.240668
     4  C   -0.201565
     5  C    0.216583
     6  N   -0.518046
     7  N   -0.502679
     8  N   -0.259086
     9  N   -0.483617
    10  H    0.225430
    11  H    0.083073
    12  H    0.119607
    13  H    0.097091
    14  H    0.083915
    15  H    0.138173
    16  H    0.220412
    17  H    0.217295
    18  H    0.228594
    19  H    0.221843
    20  H    0.217929
    21  H    0.243663
    22  H    0.226564
 Sum of Mulliken charges =  -0.00000

 Dipole moment (field-independent basis, Debye):
    X=              1.1356    Y=              0.7984    Z=              2.8524  Tot=              3.1723
 Quadrupole moment (field-independent basis, Debye-Ang):
   XX=            -62.4867   YY=            -52.7959   ZZ=            -56.5361
   XY=             -9.8975   XZ=              4.4053   YZ=             -2.2233

  Exact polarizability: 106.583  -1.983  70.243  -2.965  -4.136  69.232
 Approx polarizability: 132.035   0.141 107.128  -8.303  -7.776 109.144

                      1                      2                      3
                      A                      A                      A
 Frequencies --     39.0168                65.8416                87.2240
 Red. masses --      1.9965                 4.5623                 2.5095
 Frc consts  --      0.0018                 0.0117                 0.0112
 IR Inten    --     11.3623                 3.1396                10.0598

                      4                      5                      6
                      A                      A                      A
 Frequencies --    115.1737               155.9122               204.4046
 Red. masses --      2.4677                 2.6873                 1.5271
 Frc consts  --      0.0193                 0.0385                 0.0376
 IR Inten    --      3.3293                17.1885                24.2729

                      7                      8                      9
                      A                      A                      A
 Frequencies --    279.2233               291.4958               311.0071
 Red. masses --      3.4771                 2.9336                 1.2818
 Frc consts  --      0.1597                 0.1469                 0.0730
 IR Inten    --      1.1061                 3.7066                32.4747

                     10                     11                     12
                      A                      A                      A
 Frequencies --    364.6594               382.5376               430.2920
 Red. masses --      1.9139                 3.4809                 1.2668
 Frc consts  --      0.1500                 0.3001                 0.1382
 IR Inten    --     12.4883                 3.6369                30.6195

                     13                     14                     15
                      A                      A                      A
 Frequencies --    468.9080               515.9652               533.0150
 Red. masses --      2.4448                 2.4760                 2.0260
 Frc consts  --      0.3167                 0.3884                 0.3391
 IR Inten    --     19.0152                17.8384                34.4864

                     16                     17                     18
                      A                      A                      A
 Frequencies --    643.9258               738.0862               753.1145
 Red. masses --      2.5551                 1.4665                 2.2416
 Frc consts  --      0.6242                 0.4707                 0.7491
 IR Inten    --     16.2591                30.0489                46.5149

                     19                     20                     21
                      A                      A                      A
 Frequencies --    786.9370               798.4299               855.0419
 Red. masses --      1.4978                 2.3284                 1.5173
 Frc consts  --      0.5465                 0.8745                 0.6536
 IR Inten    --     47.9241                51.1764               118.3586

                     22                     23                     24
                      A                      A                      A
 Frequencies --    895.4507               948.9719               971.6323
 Red. masses --      1.4332                 1.9432                 1.9925
 Frc consts  --      0.6771                 1.0311                 1.1083
 IR Inten    --     78.8825                29.1089               115.3985

                     25                     26                     27
                      A                      A                      A
 Frequencies --    996.3081              1017.3582              1051.5182
 Red. masses --      2.2096                 2.0881                 2.5731
 Frc consts  --      1.2922                 1.2733                 1.6762
 IR Inten    --     48.6592                17.3331                24.9156

                     28                     29                     30
                      A                      A                      A
 Frequencies --   1081.1395              1102.8658              1127.0255
 Red. masses --      1.6506                 1.6571                 1.3490
 Frc consts  --      1.1367                 1.1875                 1.0095
 IR Inten    --     12.2785                64.3082                 4.9441

                     31                     32                     33
                      A                      A                      A
 Frequencies --   1172.5428              1193.9196              1260.8866
 Red. masses --      1.3900                 2.0274                 1.3142
 Frc consts  --      1.1259                 1.7027                 1.2311
 IR Inten    --      1.6590                96.0091                10.6178

                     34                     35                     36
                      A                      A                      A
 Frequencies --   1284.4848              1297.8201              1314.3452
 Red. masses --      1.3136                 1.4044                 1.2015
 Frc consts  --      1.2769                 1.3937                 1.2229
 IR Inten    --     17.0246                17.1790                 7.4513

                     37                     38                     39
                      A                      A                      A
 Frequencies --   1325.3914              1357.1576              1395.3370
 Red. masses --      1.4359                 1.9161                 1.6216
 Frc consts  --      1.4861                 2.0793                 1.8601
 IR Inten    --     29.5270                 9.9475                11.1184

                     40                     41                     42
                      A                      A                      A
 Frequencies --   1422.8064              1467.2981              1484.4533
 Red. masses --      1.4803                 1.0852                 1.1003
 Frc consts  --      1.7655                 1.3765                 1.4285
 IR Inten    --     16.6484                 0.6226                 5.6531

                     43                     44                     45
                      A                      A                      A
 Frequencies --   1507.5430              1637.4710              1652.7352
 Red. masses --      1.1767                 1.1066                 1.1001
 Frc consts  --      1.5756                 1.7482                 1.7704
 IR Inten    --      8.4251                19.2517                54.9814

                     46                     47                     48
                      A                      A                      A
 Frequencies --   1675.8906              1734.9792              2985.6241
 Red. masses --      1.0649                 6.5220                 1.0847
 Frc consts  --      1.7621                11.5669                 5.6966
 IR Inten    --      3.0060                88.0001                46.6490

                     49                     50                     51
                      A                      A                      A
 Frequencies --   3008.9052              3015.8854              3082.5587
 Red. masses --      1.0644                 1.0689                 1.0923
 Frc consts  --      5.6775                 5.7284                 6.1151
 IR Inten    --     16.7532                30.6462                12.5170

                     52                     53                     54
                      A                      A                      A
 Frequencies --   3102.7545              3407.2117              3444.1880
 Red. masses --      1.0962                 1.0529                 1.0756
 Frc consts  --      6.2175                 7.2018                 7.5178
 IR Inten    --     19.9874                10.3062                 1.3983

                     55                     56                     57
                      A                      A                      A
 Frequencies --   3471.4351              3498.6311              3507.7767
 Red. masses --      1.0495                 1.0747                 1.0497
 Frc consts  --      7.4519                 7.7504                 7.6098
 IR Inten    --      1.9780                 3.9842                 0.0382

                     58                     59                     60
                      A                      A                      A
 Frequencies --   3543.1238              3563.9898              3588.4125
 Red. masses --      1.0868                 1.0920                 1.0911
 Frc consts  --      8.0383                 8.1721                 8.2778
 IR Inten    --      1.3083                 0.7418                 1.3896

 - Thermochemistry -
 -------------------
 Temperature   298.150 Kelvin.  Pressure   1.00000 Atm.
 Atom     1 has atomic number  7 and mass  14.00307

 Molecular mass:   131.11710 amu.
 Principal axes and moments of inertia in atomic units:
                           1         2         3
     Eigenvalues --   458.224882616.176902643.13301
           X            0.99994  -0.00916   0.00587
           Y            0.01019   0.97751  -0.21064
           Z           -0.00380   0.21069   0.97755
 This molecule is an asymmetric top.
 Rotational symmetry number  1.
 Warning -- assumption of classical behavior for rotation
           may cause significant error
 Rotational temperatures (Kelvin)      0.18902     0.03311     0.03277
 Rotational constants (GHZ):           3.93855     0.68984     0.68280
 Zero-point vibrational energy     510913.3 (Joules/Mol)
                                  122.11122 (Kcal/Mol)
 Warning -- explicit consideration of  15 degrees of freedom as
           vibrations may cause significant error
 Vibrational temperatures:     56.14    94.73   125.50   165.71   224.32
          (Kelvin)            294.09   401.74   419.40   447.47   524.66
                              550.39   619.09   674.65   742.36   766.89
                              926.47  1061.94  1083.56  1132.23  1148.76
                             1230.21  1288.35  1365.36  1397.96  1433.47
                             1463.75  1512.90  1555.52  1586.78  1621.54
                             1687.03  1717.78  1814.13  1848.09  1867.27
                             1891.05  1906.94  1952.65  2007.58  2047.10
                             2111.11  2135.80  2169.02  2355.96  2377.92
                             2411.23  2496.25  4295.65  4329.14  4339.19
                             4435.11  4464.17  4902.22  4955.42  4994.62
                             5033.75  5046.91  5097.76  5127.79  5162.93

 Zero-point correction=                           0.194597 (Hartree/Particle)
 Thermal correction to Energy=                    0.205652
 Thermal correction to Enthalpy=                  0.206596
 Thermal correction to Gibbs Free Energy=         0.157579
 Sum of electronic and zero-point Energies=           -433.783205
 Sum of electronic and thermal Energies=              -433.772149
 Sum of electronic and thermal Enthalpies=            -433.771205
 Sum of electronic and thermal Free Energies=         -433.820222

                     E (Thermal)             CV                S
                      KCal/Mol        Cal/Mol-Kelvin    Cal/Mol-Kelvin
 Total                  129.049             40.237            103.166
 Electronic               0.000              0.000              0.000
 Translational            0.889              2.981             40.526
 Rotational               0.889              2.981             29.539
 Vibrational            127.271             34.275             33.101
 Vibration     1          0.594              1.981              5.308
 Vibration     2          0.597              1.971              4.274
 Vibration     3          0.601              1.958              3.721
 Vibration     4          0.608              1.937              3.180
 Vibration     5          0.620              1.896              2.599
 Vibration     6          0.640              1.834              2.093
 Vibration     7          0.680              1.712              1.538
 Vibration     8          0.687              1.690              1.465
 Vibration     9          0.700              1.653              1.357
 Vibration    10          0.738              1.545              1.102
 Vibration    11          0.752              1.507              1.029
 Vibration    12          0.791              1.404              0.858
 Vibration    13          0.826              1.319              0.741
 Vibration    14          0.871              1.215              0.619
 Vibration    15          0.888              1.177              0.581

 Optimization completed.
    -- Stationary point found.
 Normal termination of Gaussian 16 at Mon May 31 17:09:15 2021.
