 Gaussian 16, Revision A.03,
 Gaussian 16:  ES64L-G16RevA.03 25-Dec-2016

 -----------------------------
 # opt freq b3lyp/6-31g(2df,p)
 -----------------------------

 -------------------
 Title Card Required
 -------------------
 Symbolic Z-matrix:
 Charge =  0 Multiplicity = 1

 SCF Done:  E(RB3LYP) =  -430.353205767     A.U. after   15 cycles
 SCF Done:  E(RB3LYP) =  -430.357286958     A.U. after   12 cycles
 SCF Done:  E(RB3LYP) =  -430.358144289     A.U. after   11 cycles
 SCF Done:  E(RB3LYP) =  -430.358218619     A.U. after   10 cycles
 SCF Done:  E(RB3LYP) =  -430.358224409     A.U. after    9 cycles
 SCF Done:  E(RB3LYP) =  -430.358226025     A.U. after    8 cycles
 SCF Done:  E(RB3LYP) =  -430.358226236     A.U. after    7 cycles
 Optimization completed.
    -- Stationary point found.
 Normal termination of Gaussian 16 at Mon May 31 11:57:27 2021.

 ----------------------------------------------------------------------
 #N Geom=AllCheck Guess=TCheck SCRF=Check GenChk RB3LYP/6-31G(2df,p) Fr
 eq
 ----------------------------------------------------------------------

 Structure from the checkpoint file:  "NdCCdNCpNpdNCdN.chk"
 -------------------
 Title Card Required
 -------------------
 Charge =  0 Multiplicity = 1

                         Standard orientation:
 ---------------------------------------------------------------------
 Center     Atomic      Atomic             Coordinates (Angstroms)
 Number     Number       Type             X           Y           Z
 ---------------------------------------------------------------------
      1          7           0        4.132467   -0.034687   -0.000024
      2          6           0        3.013366   -0.643569   -0.000002
      3          6           0        1.773105    0.144345    0.000002
      4          7           0        0.646599   -0.452537    0.000027
      5          6           0       -0.580482    0.240614    0.000010
      6          7           0       -0.569107    1.603835    0.000004
      7          7           0       -1.622263   -0.527366    0.000004
      8          6           0       -2.905314   -0.004294   -0.000009
      9          7           0       -3.965020   -0.712787   -0.000015
     10          1           0        4.910062   -0.698154    0.000003
     11          1           0        2.869630   -1.729607    0.000048
     12          1           0        1.944090    1.229646   -0.000050
     13          1           0        0.284774    2.128797    0.000037
     14          1           0       -1.424152    2.128246    0.000008
     15          1           0       -3.058575    1.083826   -0.000012
     16          1           0       -3.688610   -1.700533   -0.000010
 ---------------------------------------------------------------------

 SCF Done:  E(RB3LYP) =  -430.358226236     A.U. after    1 cycles

 The electronic state is 1-A.
 Alpha  occ. eigenvalues --  -14.37324 -14.35873 -14.34919 -14.31631 -14.30004
 Alpha  occ. eigenvalues --  -10.30535 -10.26151 -10.25385 -10.24107  -1.00626
 Alpha  occ. eigenvalues --   -0.94046  -0.91992  -0.90560  -0.85290  -0.72764
 Alpha  occ. eigenvalues --   -0.63961  -0.59011  -0.58679  -0.56517  -0.55235
 Alpha  occ. eigenvalues --   -0.51206  -0.47240  -0.44504  -0.44416  -0.42541
 Alpha  occ. eigenvalues --   -0.38504  -0.34035  -0.31186  -0.29806  -0.28767
 Alpha  occ. eigenvalues --   -0.27114  -0.26381  -0.24237
 Alpha virt. eigenvalues --   -0.09967  -0.00683   0.04343   0.04576   0.08305
 Alpha virt. eigenvalues --    0.08945   0.09786   0.14634   0.15524   0.17508
 Alpha virt. eigenvalues --    0.18762   0.22889   0.24365   0.27202   0.28962

 Mulliken charges:
               1
     1  N   -0.373427
     2  C   -0.003597
     3  C    0.029876
     4  N   -0.230917
     5  C    0.474137
     6  N   -0.560359
     7  N   -0.310144
     8  C    0.114075
     9  N   -0.441003
    10  H    0.243126
    11  H    0.119465
    12  H    0.099264
    13  H    0.268727
    14  H    0.275169
    15  H    0.071150
    16  H    0.224457
 Sum of Mulliken charges =  -0.00000

 Dipole moment (field-independent basis, Debye):
    X=              3.9287    Y=              2.4352    Z=              0.0001  Tot=              4.6222
 Quadrupole moment (field-independent basis, Debye-Ang):
   XX=            -63.9610   YY=            -44.4696   ZZ=            -53.3921
   XY=             -9.7892   XZ=              0.0002   YZ=              0.0002

  Exact polarizability: 181.003  15.172  75.293   0.000  -0.000  36.550
 Approx polarizability: 284.020  52.649 125.882  -0.000  -0.001  58.753

 ******    3 imaginary frequencies (negative Signs) ******

                      1                      2                      3
                      A                      A                      A
 Frequencies --   -290.6035              -123.6311               -85.6273
 Red. masses --      1.1860                 1.6499                 2.8288
 Frc consts  --      0.0590                 0.0149                 0.0122
 IR Inten    --    158.1282                 1.5837                 5.4389

                      4                      5                      6
                      A                      A                      A
 Frequencies --     99.3116               114.2794               166.2389
 Red. masses --      4.4823                 5.3908                 4.8694
 Frc consts  --      0.0260                 0.0415                 0.0793
 IR Inten    --      3.0002                 7.2512                 2.7369

                      7                      8                      9
                      A                      A                      A
 Frequencies --    244.6070               265.9123               365.9484
 Red. masses --      4.9261                 2.1635                 6.6957
 Frc consts  --      0.1737                 0.0901                 0.5283
 IR Inten    --      7.3301                39.2088                 0.2412

                     10                     11                     12
                      A                      A                      A
 Frequencies --    411.3978               434.4190               494.1392
 Red. masses --      3.5831                 1.4329                 3.4947
 Frc consts  --      0.3573                 0.1593                 0.5028
 IR Inten    --      7.8889                 0.5195                11.7955

                     13                     14                     15
                      A                      A                      A
 Frequencies --    620.1232               658.9344               702.7205
 Red. masses --      4.6075                 3.1501                 2.3917
 Frc consts  --      1.0439                 0.8059                 0.6959
 IR Inten    --     17.5751                 0.6927                40.0470

                     16                     17                     18
                      A                      A                      A
 Frequencies --    815.4571               892.2639               936.0435
 Red. masses --      1.9150                 2.3191                 4.5177
 Frc consts  --      0.7503                 1.0878                 2.3322
 IR Inten    --     26.4962                28.9063                15.7517

                     19                     20                     21
                      A                      A                      A
 Frequencies --   1001.2400              1034.2835              1073.1777
 Red. masses --      1.7662                 2.3648                 1.9391
 Frc consts  --      1.0432                 1.4905                 1.3158
 IR Inten    --      0.1667                 7.5485                42.2587

                     22                     23                     24
                      A                      A                      A
 Frequencies --   1094.3650              1129.8021              1160.9897
 Red. masses --      1.0844                 1.2334                 2.7536
 Frc consts  --      0.7652                 0.9276                 2.1868
 IR Inten    --     50.3713                 6.7094                15.0233

                     25                     26                     27
                      A                      A                      A
 Frequencies --   1252.9218              1263.0704              1333.2815
 Red. masses --      1.3389                 1.3798                 2.4168
 Frc consts  --      1.2384                 1.2969                 2.5313
 IR Inten    --     28.0626               167.7101                95.2098

                     28                     29                     30
                      A                      A                      A
 Frequencies --   1351.9241              1406.7888              1457.9264
 Red. masses --      1.6142                 1.7504                 1.2799
 Frc consts  --      1.7383                 2.0410                 1.6029
 IR Inten    --     27.3977                28.4592                59.4634

                     31                     32                     33
                      A                      A                      A
 Frequencies --   1607.9563              1651.0664              1689.4705
 Red. masses --      2.7447                 1.8961                 7.4591
 Frc consts  --      4.1811                 3.0453                12.5440
 IR Inten    --    226.7355               316.0151                37.5786

                     34                     35                     36
                      A                      A                      A
 Frequencies --   1696.2767              1719.6994              3014.8069
 Red. masses --      7.8939                 4.9755                 1.0832
 Frc consts  --     13.3824                 8.6694                 5.8008
 IR Inten    --      9.2329               120.7533                71.5368

                     37                     38                     39
                      A                      A                      A
 Frequencies --   3022.2933              3071.7175              3421.6959
 Red. masses --      1.0858                 1.0901                 1.0719
 Frc consts  --      5.8436                 6.0599                 7.3942
 IR Inten    --     57.0375                22.3742                 2.4258

                     40                     41                     42
                      A                      A                      A
 Frequencies --   3460.0934              3647.8101              3758.2502
 Red. masses --      1.0759                 1.0450                 1.1032
 Frc consts  --      7.5892                 8.1930                 9.1806
 IR Inten    --      3.9531                38.8595                40.1341

 - Thermochemistry -
 -------------------
 Temperature   298.150 Kelvin.  Pressure   1.00000 Atm.
 Atom     1 has atomic number  7 and mass  14.00307

 Molecular mass:   125.07015 amu.
 Principal axes and moments of inertia in atomic units:
                           1         2         3
     Eigenvalues --   264.269562929.107773193.37733
           X            0.99997  -0.00723   0.00000
           Y            0.00723   0.99997  -0.00000
           Z           -0.00000   0.00000   1.00000
 This molecule is an asymmetric top.
 Rotational symmetry number  1.
 Rotational temperatures (Kelvin)      0.32775     0.02957     0.02712
 Rotational constants (GHZ):           6.82917     0.61614     0.56515
    3 imaginary frequencies ignored.
 Zero-point vibrational energy     320256.5 (Joules/Mol)
                                   76.54314 (Kcal/Mol)
 Warning -- explicit consideration of  10 degrees of freedom as
           vibrations may cause significant error
 Vibrational temperatures:    142.89   164.42   239.18   351.93   382.59
          (Kelvin)            526.52   591.91   625.03   710.96   892.22
                              948.06  1011.06  1173.26  1283.77  1346.76
                             1440.56  1488.10  1544.06  1574.55  1625.53
                             1670.41  1802.68  1817.28  1918.29  1945.12
                             2024.06  2097.63  2313.49  2375.52  2430.77
                             2440.56  2474.26  4337.63  4348.41  4419.52
                             4923.06  4978.30  5248.39  5407.28

 Zero-point correction=                           0.121979 (Hartree/Particle)
 Thermal correction to Energy=                    0.129780
 Thermal correction to Enthalpy=                  0.130724
 Thermal correction to Gibbs Free Energy=         0.088976
 Sum of electronic and zero-point Energies=           -430.236247
 Sum of electronic and thermal Energies=              -430.228446
 Sum of electronic and thermal Enthalpies=            -430.227502
 Sum of electronic and thermal Free Energies=         -430.269250

                     E (Thermal)             CV                S
                      KCal/Mol        Cal/Mol-Kelvin    Cal/Mol-Kelvin
 Total                   81.438             27.983             87.866
 Electronic               0.000              0.000              0.000
 Translational            0.889              2.981             40.385
 Rotational               0.889              2.981             29.293
 Vibrational             79.661             22.021             18.188
 Vibration     1          0.604              1.950              3.468
 Vibration     2          0.607              1.938              3.195
 Vibration     3          0.624              1.884              2.478
 Vibration     4          0.660              1.772              1.769
 Vibration     5          0.672              1.736              1.623
 Vibration     6          0.739              1.542              1.097
 Vibration     7          0.775              1.445              0.922
 Vibration     8          0.795              1.395              0.844
 Vibration     9          0.850              1.263              0.673
 Vibration    10          0.980              0.989              0.416

 Optimization completed.
    -- Stationary point found.
 Normal termination of Gaussian 16 at Mon May 31 12:14:22 2021.
