 Gaussian 16, Revision A.03,
 Gaussian 16:  ES64L-G16RevA.03 25-Dec-2016

 -----------------------------
 # opt freq b3lyp/6-31g(2df,p)
 -----------------------------

 -------------------
 Title Card Required
 -------------------
 Symbolic Z-matrix:
 Charge =  0 Multiplicity = 1

 SCF Done:  E(RB3LYP) =  -485.623105530     A.U. after   15 cycles
 SCF Done:  E(RB3LYP) =  -485.648419325     A.U. after   13 cycles
 SCF Done:  E(RB3LYP) =  -485.651696428     A.U. after   14 cycles
 SCF Done:  E(RB3LYP) =  -485.651576595     A.U. after   15 cycles
 SCF Done:  E(RB3LYP) =  -485.655529464     A.U. after   13 cycles
 SCF Done:  E(RB3LYP) =  -485.657038522     A.U. after   13 cycles
 SCF Done:  E(RB3LYP) =  -485.657988957     A.U. after   12 cycles
 SCF Done:  E(RB3LYP) =  -485.658295730     A.U. after   12 cycles
 SCF Done:  E(RB3LYP) =  -485.658355490     A.U. after   12 cycles
 SCF Done:  E(RB3LYP) =  -485.658386520     A.U. after   11 cycles
 SCF Done:  E(RB3LYP) =  -485.658443368     A.U. after   12 cycles
 SCF Done:  E(RB3LYP) =  -485.658446995     A.U. after   14 cycles
 SCF Done:  E(RB3LYP) =  -485.658449161     A.U. after   12 cycles
 SCF Done:  E(RB3LYP) =  -485.658452761     A.U. after    8 cycles
 SCF Done:  E(RB3LYP) =  -485.658455272     A.U. after   12 cycles
 SCF Done:  E(RB3LYP) =  -485.658455289     A.U. after   12 cycles
 SCF Done:  E(RB3LYP) =  -485.658455551     A.U. after   12 cycles
 SCF Done:  E(RB3LYP) =  -485.658455720     A.U. after   11 cycles
 SCF Done:  E(RB3LYP) =  -485.658455726     A.U. after    8 cycles
 Optimization completed.
    -- Stationary point found.
 Normal termination of Gaussian 16 at Mon May 31 20:16:12 2021.

 ----------------------------------------------------------------------
 #N Geom=AllCheck Guess=TCheck SCRF=Check GenChk RB3LYP/6-31G(2df,p) Fr
 eq
 ----------------------------------------------------------------------

 Structure from the checkpoint file:  "NdCdNCCpdNpCdNNN.chk"
 -------------------
 Title Card Required
 -------------------
 Charge =  0 Multiplicity = 1

                         Standard orientation:
 ---------------------------------------------------------------------
 Center     Atomic      Atomic             Coordinates (Angstroms)
 Number     Number       Type             X           Y           Z
 ---------------------------------------------------------------------
      1          7           0        4.889616   -0.374318    0.069636
      2          6           0        3.694942   -0.109085    0.015330
      3          7           0        2.548943    0.234386   -0.198975
      4          6           0        1.336854   -0.552107   -0.163783
      5          6           0        0.104750    0.345315   -0.031717
      6          7           0        0.143020    1.614552    0.038748
      7          6           0       -1.154904   -0.418432    0.000665
      8          7           0       -2.297327    0.151324    0.129026
      9          7           0       -3.397787   -0.618687    0.205143
     10          7           0       -4.626021    0.000504   -0.101623
     11          1           0        5.369169   -0.308033    0.959085
     12          1           0        1.347511   -1.275366    0.663684
     13          1           0        1.250600   -1.139514   -1.089145
     14          1           0        1.120583    1.918034   -0.009425
     15          1           0       -1.075286   -1.510923   -0.085854
     16          1           0       -3.337126   -1.540774   -0.221354
     17          1           0       -4.477410    0.676278   -0.850506
     18          1           0       -4.911006    0.531819    0.716854
 ---------------------------------------------------------------------

 SCF Done:  E(RB3LYP) =  -485.658455726     A.U. after    1 cycles

 The electronic state is 1-A.
 Alpha  occ. eigenvalues --  -14.39897 -14.37071 -14.35290 -14.35249 -14.34348
 Alpha  occ. eigenvalues --  -14.30074 -10.28541 -10.24562 -10.23165 -10.21748
 Alpha  occ. eigenvalues --   -1.03907  -0.97319  -0.92021  -0.90541  -0.88157
 Alpha  occ. eigenvalues --   -0.76122  -0.74219  -0.65695  -0.58354  -0.56471
 Alpha  occ. eigenvalues --   -0.53249  -0.51229  -0.51033  -0.49276  -0.47682
 Alpha  occ. eigenvalues --   -0.47095  -0.41359  -0.40251  -0.39154  -0.38632
 Alpha  occ. eigenvalues --   -0.31585  -0.28699  -0.28112  -0.27816  -0.27537
 Alpha  occ. eigenvalues --   -0.25520  -0.22583
 Alpha virt. eigenvalues --   -0.04492   0.01715   0.02336   0.06473   0.08387
 Alpha virt. eigenvalues --    0.09110   0.09530   0.11030   0.13401   0.14883
 Alpha virt. eigenvalues --    0.15964   0.18227   0.18640   0.20355   0.23554

 Mulliken charges:
               1
     1  N   -0.539137
     2  C    0.458578
     3  N   -0.283740
     4  C   -0.250399
     5  C    0.259401
     6  N   -0.464483
     7  C   -0.037424
     8  N   -0.096203
     9  N   -0.199441
    10  N   -0.437245
    11  H    0.275058
    12  H    0.132425
    13  H    0.140270
    14  H    0.230979
    15  H    0.066773
    16  H    0.242601
    17  H    0.245108
    18  H    0.256879
 Sum of Mulliken charges =  -0.00000

 Dipole moment (field-independent basis, Debye):
    X=              0.1281    Y=             -2.7453    Z=              0.7598  Tot=              2.8514
 Quadrupole moment (field-independent basis, Debye-Ang):
   XX=            -55.6055   YY=            -58.6843   ZZ=            -55.8374
   XY=             -0.6391   XZ=              8.9666   YZ=              0.1173

  Exact polarizability: 166.993   0.454  74.094   2.998   0.641  50.115
 Approx polarizability: 227.109  -2.613 125.401   1.717   0.087  78.627

                      1                      2                      3
                      A                      A                      A
 Frequencies --     12.3922                48.4191                67.9377
 Red. masses --      4.7419                 3.5848                 4.4666
 Frc consts  --      0.0004                 0.0050                 0.0121
 IR Inten    --      3.0467                 1.1611                 1.2604

                      4                      5                      6
                      A                      A                      A
 Frequencies --    112.3685               148.2973               179.3134
 Red. masses --      2.5789                 5.5726                 3.2801
 Frc consts  --      0.0192                 0.0722                 0.0621
 IR Inten    --     12.0984                 5.9023                 1.9301

                      7                      8                      9
                      A                      A                      A
 Frequencies --    221.6001               287.3578               301.7451
 Red. masses --      2.6563                 6.0042                 3.1084
 Frc consts  --      0.0769                 0.2921                 0.1668
 IR Inten    --     10.2771                 7.9651                 8.0199

                     10                     11                     12
                      A                      A                      A
 Frequencies --    316.7284               373.7758               468.2400
 Red. masses --      1.7947                 5.3685                 1.5795
 Frc consts  --      0.1061                 0.4419                 0.2040
 IR Inten    --     43.1392                 6.5387                64.5421

                     13                     14                     15
                      A                      A                      A
 Frequencies --    510.5938               541.8286               580.7088
 Red. masses --      2.2210                 2.8947                 2.2071
 Frc consts  --      0.3412                 0.5007                 0.4385
 IR Inten    --    241.2952                11.2232                66.2181

                     16                     17                     18
                      A                      A                      A
 Frequencies --    640.7140               665.4627               718.8584
 Red. masses --      4.6749                 3.1028                 2.8855
 Frc consts  --      1.1307                 0.8096                 0.8785
 IR Inten    --     73.6672               107.3455                16.7019

                     19                     20                     21
                      A                      A                      A
 Frequencies --    868.9877               911.1055               924.8130
 Red. masses --      1.2443                 3.7534                 1.4550
 Frc consts  --      0.5536                 1.8358                 0.7332
 IR Inten    --     50.5630                57.4324               327.6207

                     22                     23                     24
                      A                      A                      A
 Frequencies --    942.3859               949.6548               984.3407
 Red. masses --      3.2212                 1.5720                 2.9195
 Frc consts  --      1.6855                 0.8353                 1.6667
 IR Inten    --     11.7608                 0.8774                31.8702

                     25                     26                     27
                      A                      A                      A
 Frequencies --   1030.2581              1072.9682              1172.3690
 Red. masses --      1.6728                 2.2443                 3.9402
 Frc consts  --      1.0461                 1.5223                 3.1908
 IR Inten    --     11.9821                33.3916                81.7783

                     28                     29                     30
                      A                      A                      A
 Frequencies --   1240.4078              1248.3525              1305.2232
 Red. masses --      2.3608                 1.0803                 1.2808
 Frc consts  --      2.1401                 0.9919                 1.2855
 IR Inten    --     32.4562                 0.8985               136.2255

                     31                     32                     33
                      A                      A                      A
 Frequencies --   1334.8221              1367.1264              1418.9606
 Red. masses --      1.1608                 1.4376                 2.4314
 Frc consts  --      1.2186                 1.5831                 2.8843
 IR Inten    --     36.0350                 2.9614                27.2227

                     34                     35                     36
                      A                      A                      A
 Frequencies --   1429.2169              1467.0716              1498.7803
 Red. masses --      3.1242                 1.1001                 1.2757
 Frc consts  --      3.7600                 1.3950                 1.6884
 IR Inten    --     38.0203                30.6356                19.9578

                     37                     38                     39
                      A                      A                      A
 Frequencies --   1645.5239              1699.3219              1717.8640
 Red. masses --      6.2325                 1.0986                 8.0021
 Frc consts  --      9.9431                 1.8691                13.9134
 IR Inten    --    216.3462                 9.6311                24.2619

                     40                     41                     42
                      A                      A                      A
 Frequencies --   2266.0706              2996.3981              3017.1813
 Red. masses --     10.3222                 1.0578                 1.0826
 Frc consts  --     31.2297                 5.5958                 5.8067
 IR Inten    --   1133.3660                23.4263                56.0528

                     43                     44                     45
                      A                      A                      A
 Frequencies --   3031.6051              3423.7973              3446.5273
 Red. masses --      1.1036                 1.0722                 1.0511
 Frc consts  --      5.9762                 7.4050                 7.3564
 IR Inten    --     14.8898                16.5638                 4.1163

                     46                     47                     48
                      A                      A                      A
 Frequencies --   3467.6728              3535.4756              3591.2302
 Red. masses --      1.0728                 1.0920                 1.0791
 Frc consts  --      7.6007                 8.0423                 8.1997
 IR Inten    --     10.5883                 3.0841                80.4253

 - Thermochemistry -
 -------------------
 Temperature   298.150 Kelvin.  Pressure   1.00000 Atm.
 Atom     1 has atomic number  7 and mass  14.00307

 Molecular mass:   140.08104 amu.
 Principal axes and moments of inertia in atomic units:
                           1         2         3
     Eigenvalues --   250.609584495.946344705.21087
           X            0.99999  -0.00123   0.00460
           Y            0.00120   0.99998   0.00593
           Z           -0.00460  -0.00592   0.99997
 This molecule is an asymmetric top.
 Rotational symmetry number  1.
 Rotational temperatures (Kelvin)      0.34561     0.01926     0.01841
 Rotational constants (GHZ):           7.20141     0.40142     0.38356
 Zero-point vibrational energy     366068.4 (Joules/Mol)
                                   87.49244 (Kcal/Mol)
 Warning -- explicit consideration of  15 degrees of freedom as
           vibrations may cause significant error
 Vibrational temperatures:     17.83    69.66    97.75   161.67   213.37
          (Kelvin)            257.99   318.83   413.44   434.14   455.70
                              537.78   673.69   734.63   779.57   835.51
                              921.84   957.45  1034.28  1250.28  1310.88
                             1330.60  1355.88  1366.34  1416.25  1482.31
                             1543.76  1686.78  1784.67  1796.10  1877.93
                             1920.51  1966.99  2041.57  2056.32  2110.79
                             2156.41  2367.54  2444.95  2471.62  3260.37
                             4311.15  4341.05  4361.80  4926.08  4958.78
                             4989.21  5086.76  5166.98

 Zero-point correction=                           0.139428 (Hartree/Particle)
 Thermal correction to Energy=                    0.150543
 Thermal correction to Enthalpy=                  0.151487
 Thermal correction to Gibbs Free Energy=         0.100389
 Sum of electronic and zero-point Energies=           -485.519028
 Sum of electronic and thermal Energies=              -485.507913
 Sum of electronic and thermal Enthalpies=            -485.506969
 Sum of electronic and thermal Free Energies=         -485.558067

                     E (Thermal)             CV                S
                      KCal/Mol        Cal/Mol-Kelvin    Cal/Mol-Kelvin
 Total                   94.467             38.235            107.545
 Electronic               0.000              0.000              0.000
 Translational            0.889              2.981             40.723
 Rotational               0.889              2.981             30.051
 Vibrational             92.690             32.273             36.771
 Vibration     1          0.593              1.987              7.585
 Vibration     2          0.595              1.978              4.881
 Vibration     3          0.598              1.970              4.212
 Vibration     4          0.607              1.939              3.228
 Vibration     5          0.618              1.905              2.694
 Vibration     6          0.629              1.868              2.336
 Vibration     7          0.648              1.808              1.946
 Vibration     8          0.685              1.697              1.489
 Vibration     9          0.694              1.670              1.407
 Vibration    10          0.704              1.642              1.327
 Vibration    11          0.745              1.526              1.064
 Vibration    12          0.825              1.321              0.742
 Vibration    13          0.866              1.227              0.632
 Vibration    14          0.897              1.158              0.561
 Vibration    15          0.937              1.073              0.484

 Optimization completed.
    -- Stationary point found.
 Normal termination of Gaussian 16 at Mon May 31 20:38:48 2021.
