 Gaussian 16, Revision A.03,
 Gaussian 16:  ES64L-G16RevA.03 25-Dec-2016

 -----------------------------
 # opt freq b3lyp/6-31g(2df,p)
 -----------------------------

 -------------------
 Title Card Required
 -------------------
 Symbolic Z-matrix:
 Charge =  0 Multiplicity = 1

 SCF Done:  E(RB3LYP) =  -376.177423234     A.U. after   14 cycles
 SCF Done:  E(RB3LYP) =  -376.190957330     A.U. after   13 cycles
 SCF Done:  E(RB3LYP) =  -376.192143286     A.U. after   12 cycles
 SCF Done:  E(RB3LYP) =  -376.192508054     A.U. after   12 cycles
 SCF Done:  E(RB3LYP) =  -376.193205709     A.U. after   12 cycles
 SCF Done:  E(RB3LYP) =  -376.195332589     A.U. after   14 cycles
 SCF Done:  E(RB3LYP) =  -376.196852243     A.U. after   12 cycles
 SCF Done:  E(RB3LYP) =  -376.199393518     A.U. after   13 cycles
 SCF Done:  E(RB3LYP) =  -376.200308847     A.U. after   12 cycles
 SCF Done:  E(RB3LYP) =  -376.200959374     A.U. after   13 cycles
 SCF Done:  E(RB3LYP) =  -376.201574392     A.U. after   13 cycles
 SCF Done:  E(RB3LYP) =  -376.201806940     A.U. after   13 cycles
 SCF Done:  E(RB3LYP) =  -376.201868880     A.U. after   11 cycles
 SCF Done:  E(RB3LYP) =  -376.201931003     A.U. after   11 cycles
 SCF Done:  E(RB3LYP) =  -376.201972130     A.U. after   11 cycles
 SCF Done:  E(RB3LYP) =  -376.202000852     A.U. after   11 cycles
 SCF Done:  E(RB3LYP) =  -376.202009963     A.U. after   10 cycles
 SCF Done:  E(RB3LYP) =  -376.202011860     A.U. after   10 cycles
 SCF Done:  E(RB3LYP) =  -376.202011983     A.U. after    8 cycles
 Optimization completed.
    -- Stationary point found.
 Normal termination of Gaussian 16 at Tue Jun  1 08:24:39 2021.

 ----------------------------------------------------------------------
 #N Geom=AllCheck Guess=TCheck SCRF=Check GenChk RB3LYP/6-31G(2df,p) Fr
 eq
 ----------------------------------------------------------------------

 Structure from the checkpoint file:  "NdCNC1NCC1dN.chk"
 -------------------
 Title Card Required
 -------------------
 Charge =  0 Multiplicity = 1

                         Standard orientation:
 ---------------------------------------------------------------------
 Center     Atomic      Atomic             Coordinates (Angstroms)
 Number     Number       Type             X           Y           Z
 ---------------------------------------------------------------------
      1          7           0       -3.266171    0.242037   -0.406592
      2          6           0       -2.235332   -0.037169    0.286601
      3          7           0       -0.971189    0.013701   -0.242526
      4          6           0        0.224541   -0.254431    0.481872
      5          7           0        1.007869   -1.486204    0.125086
      6          6           0        2.191895   -0.698337   -0.311438
      7          6           0        1.456945    0.579470    0.096747
      8          7           0        1.625996    1.824674    0.073820
      9          1           0       -4.107636    0.148254    0.156669
     10          1           0       -2.230722   -0.343368    1.340650
     11          1           0       -0.906514    0.351420   -1.192574
     12          1           0       -0.017342   -0.237969    1.550856
     13          1           0        0.567611   -2.016802   -0.618265
     14          1           0        2.434215   -0.743519   -1.381961
     15          1           0        3.102351   -0.924414    0.255617
     16          1           0        2.554213    2.069752   -0.282199
 ---------------------------------------------------------------------

 SCF Done:  E(RB3LYP) =  -376.202011983     A.U. after    1 cycles

 The electronic state is 1-A.
 Alpha  occ. eigenvalues --  -14.35425 -14.32907 -14.32479 -14.28824 -10.25855
 Alpha  occ. eigenvalues --  -10.25033 -10.24419 -10.22622  -0.97751  -0.93191
 Alpha  occ. eigenvalues --   -0.89610  -0.85377  -0.69448  -0.69096  -0.62055
 Alpha  occ. eigenvalues --   -0.57641  -0.53281  -0.50009  -0.47254  -0.45827
 Alpha  occ. eigenvalues --   -0.44173  -0.43144  -0.40974  -0.37435  -0.35825
 Alpha  occ. eigenvalues --   -0.32498  -0.27209  -0.26164  -0.25211  -0.22487
 Alpha virt. eigenvalues --   -0.02046   0.03394   0.07898   0.08825   0.10105
 Alpha virt. eigenvalues --    0.11292   0.12945   0.13506   0.14825   0.17785
 Alpha virt. eigenvalues --    0.18187   0.19632   0.24772   0.25978   0.29156

 Mulliken charges:
               1
     1  N   -0.484754
     2  C    0.100839
     3  N   -0.241744
     4  C    0.031582
     5  N   -0.331746
     6  C   -0.261467
     7  C    0.279474
     8  N   -0.470628
     9  H    0.222544
    10  H    0.093771
    11  H    0.250970
    12  H    0.112600
    13  H    0.221933
    14  H    0.119546
    15  H    0.127864
    16  H    0.229217
 Sum of Mulliken charges =  -0.00000

 Dipole moment (field-independent basis, Debye):
    X=              2.2745    Y=             -1.3355    Z=             -0.0592  Tot=              2.6383
 Quadrupole moment (field-independent basis, Debye-Ang):
   XX=            -44.9713   YY=            -53.1129   ZZ=            -45.1620
   XY=              3.0273   XZ=             -8.4666   YZ=              0.9176

  Exact polarizability:  98.567  -0.006  62.437  -2.359  -1.220  53.329
 Approx polarizability: 127.171  -1.859  97.751   1.422  -3.162  83.530

                      1                      2                      3
                      A                      A                      A
 Frequencies --     40.5245                60.3958               133.7821
 Red. masses --      5.3695                 2.4317                 2.1616
 Frc consts  --      0.0052                 0.0052                 0.0228
 IR Inten    --      0.2193                 2.8284                 4.9245

                      4                      5                      6
                      A                      A                      A
 Frequencies --    174.8759               286.2243               386.2177
 Red. masses --      4.0020                 4.1684                 4.1495
 Frc consts  --      0.0721                 0.2012                 0.3647
 IR Inten    --      3.7393                 9.8135                 4.0572

                      7                      8                      9
                      A                      A                      A
 Frequencies --    400.7379               526.5281               542.5427
 Red. masses --      3.0391                 2.1420                 1.7220
 Frc consts  --      0.2875                 0.3499                 0.2986
 IR Inten    --      7.7418                40.1796               129.1886

                     10                     11                     12
                      A                      A                      A
 Frequencies --    587.1693               671.2779               727.1354
 Red. masses --      2.4392                 2.3828                 2.5121
 Frc consts  --      0.4955                 0.6326                 0.7826
 IR Inten    --     19.5312                46.3036                22.5705

                     13                     14                     15
                      A                      A                      A
 Frequencies --    788.2957               837.0633               941.1371
 Red. masses --      1.3122                 1.5018                 2.1095
 Frc consts  --      0.4804                 0.6200                 1.1009
 IR Inten    --     33.9303                85.3808                 7.1408

                     16                     17                     18
                      A                      A                      A
 Frequencies --    989.5953               991.0524              1009.7169
 Red. masses --      1.8179                 3.2122                 2.5337
 Frc consts  --      1.0489                 1.8588                 1.5220
 IR Inten    --     11.6487                70.8656                41.2778

                     19                     20                     21
                      A                      A                      A
 Frequencies --   1055.0173              1055.7611              1096.4457
 Red. masses --      1.3123                 2.0592                 1.6793
 Frc consts  --      0.8606                 1.3523                 1.1895
 IR Inten    --      1.0913                 6.5927                54.4301

                     22                     23                     24
                      A                      A                      A
 Frequencies --   1155.4764              1199.0465              1226.4653
 Red. masses --      1.3401                 2.0309                 1.3177
 Frc consts  --      1.0542                 1.7204                 1.1679
 IR Inten    --      9.0673               164.0319                13.8556

                     25                     26                     27
                      A                      A                      A
 Frequencies --   1275.9869              1299.6168              1305.3033
 Red. masses --      1.5459                 1.4223                 1.6086
 Frc consts  --      1.4829                 1.4154                 1.6148
 IR Inten    --     81.0535                40.1741                43.1302

                     28                     29                     30
                      A                      A                      A
 Frequencies --   1350.2327              1374.9114              1415.5404
 Red. masses --      1.4407                 1.3138                 1.5234
 Frc consts  --      1.5475                 1.4632                 1.7984
 IR Inten    --     12.8528                28.5222                39.6202

                     31                     32                     33
                      A                      A                      A
 Frequencies --   1484.7496              1497.6191              1738.2353
 Red. masses --      1.3525                 1.3943                 4.8139
 Frc consts  --      1.7566                 1.8424                 8.5696
 IR Inten    --     27.7990                34.3734               431.7279

                     34                     35                     36
                      A                      A                      A
 Frequencies --   1807.9508              3010.7030              3035.7884
 Red. masses --     10.1601                 1.0602                 1.0859
 Frc consts  --     19.5668                 5.6621                 5.8961
 IR Inten    --     91.5891                42.0133                10.9511

                     37                     38                     39
                      A                      A                      A
 Frequencies --   3046.3430              3055.5746              3431.1241
 Red. masses --      1.0852                 1.1031                 1.0748
 Frc consts  --      5.9335                 6.0680                 7.4553
 IR Inten    --     43.7181                29.5532                 0.2004

                     40                     41                     42
                      A                      A                      A
 Frequencies --   3521.3782              3547.4684              3603.4790
 Red. masses --      1.0760                 1.0759                 1.0753
 Frc consts  --      7.8614                 7.9771                 8.2266
 IR Inten    --      3.8928                 3.6085                19.5810

 - Thermochemistry -
 -------------------
 Temperature   298.150 Kelvin.  Pressure   1.00000 Atm.
 Atom     1 has atomic number  7 and mass  14.00307

 Molecular mass:   112.07490 amu.
 Principal axes and moments of inertia in atomic units:
                           1         2         3
     Eigenvalues --   413.220851498.286951793.43350
           X            0.99987  -0.00228  -0.01600
           Y            0.00233   0.99999   0.00292
           Z            0.01599  -0.00296   0.99987
 This molecule is an asymmetric top.
 Rotational symmetry number  1.
 Rotational temperatures (Kelvin)      0.20961     0.05781     0.04830
 Rotational constants (GHZ):           4.36750     1.20454     1.00631
 Zero-point vibrational energy     345029.9 (Joules/Mol)
                                   82.46412 (Kcal/Mol)
 Warning -- explicit consideration of  10 degrees of freedom as
           vibrations may cause significant error
 Vibrational temperatures:     58.31    86.90   192.48   251.61   411.81
          (Kelvin)            555.68   576.57   757.56   780.60   844.81
                              965.82  1046.19  1134.18  1204.35  1354.09
                             1423.81  1425.90  1452.76  1517.93  1519.00
                             1577.54  1662.47  1725.16  1764.61  1835.86
                             1869.86  1878.04  1942.68  1978.19  2036.65
                             2136.22  2154.74  2500.93  2601.24  4331.73
                             4367.82  4383.01  4396.29  4936.62  5066.48
                             5104.02  5184.60

 Zero-point correction=                           0.131415 (Hartree/Particle)
 Thermal correction to Energy=                    0.139569
 Thermal correction to Enthalpy=                  0.140513
 Thermal correction to Gibbs Free Energy=         0.097496
 Sum of electronic and zero-point Energies=           -376.070597
 Sum of electronic and thermal Energies=              -376.062443
 Sum of electronic and thermal Enthalpies=            -376.061499
 Sum of electronic and thermal Free Energies=         -376.104516

                     E (Thermal)             CV                S
                      KCal/Mol        Cal/Mol-Kelvin    Cal/Mol-Kelvin
 Total                   87.581             28.856             90.537
 Electronic               0.000              0.000              0.000
 Translational            0.889              2.981             40.058
 Rotational               0.889              2.981             28.498
 Vibrational             85.803             22.895             21.982
 Vibration     1          0.594              1.981              5.233
 Vibration     2          0.597              1.973              4.444
 Vibration     3          0.613              1.920              2.891
 Vibration     4          0.627              1.873              2.382
 Vibration     5          0.684              1.699              1.496
 Vibration     6          0.755              1.500              1.015
 Vibration     7          0.767              1.469              0.960
 Vibration     8          0.881              1.191              0.595
 Vibration     9          0.898              1.156              0.560
 Vibration    10          0.944              1.059              0.472

 Optimization completed.
    -- Stationary point found.
 Normal termination of Gaussian 16 at Tue Jun  1 08:44:13 2021.
