 Gaussian 16, Revision A.03,
 Gaussian 16:  ES64L-G16RevA.03 25-Dec-2016

 -----------------------------
 # opt freq b3lyp/6-31g(2df,p)
 -----------------------------

 -------------------
 Title Card Required
 -------------------
 Symbolic Z-matrix:
 Charge =  0 Multiplicity = 1

 SCF Done:  E(RB3LYP) =  -360.206363451     A.U. after   14 cycles
 SCF Done:  E(RB3LYP) =  -360.215163907     A.U. after   12 cycles
 SCF Done:  E(RB3LYP) =  -360.217514654     A.U. after   13 cycles
 SCF Done:  E(RB3LYP) =  -360.218689694     A.U. after   13 cycles
 SCF Done:  E(RB3LYP) =  -360.219043280     A.U. after   12 cycles
 SCF Done:  E(RB3LYP) =  -360.219225550     A.U. after   10 cycles
 SCF Done:  E(RB3LYP) =  -360.219294996     A.U. after   11 cycles
 SCF Done:  E(RB3LYP) =  -360.219343067     A.U. after   10 cycles
 SCF Done:  E(RB3LYP) =  -360.219349862     A.U. after   10 cycles
 SCF Done:  E(RB3LYP) =  -360.219351245     A.U. after    8 cycles
 SCF Done:  E(RB3LYP) =  -360.219351635     A.U. after    7 cycles
 SCF Done:  E(RB3LYP) =  -360.219352081     A.U. after    8 cycles
 SCF Done:  E(RB3LYP) =  -360.219352175     A.U. after    7 cycles
 Optimization completed.
    -- Stationary point found.
 Normal termination of Gaussian 16 at Tue Jun  1 01:55:44 2021.

 ----------------------------------------------------------------------
 #N Geom=AllCheck Guess=TCheck SCRF=Check GenChk RB3LYP/6-31G(2df,p) Fr
 eq
 ----------------------------------------------------------------------

 Structure from the checkpoint file:  "NdCNC1dNCCC1.chk"
 -------------------
 Title Card Required
 -------------------
 Charge =  0 Multiplicity = 1

                         Standard orientation:
 ---------------------------------------------------------------------
 Center     Atomic      Atomic             Coordinates (Angstroms)
 Number     Number       Type             X           Y           Z
 ---------------------------------------------------------------------
      1          7           0       -3.410528   -0.079542   -0.021581
      2          6           0       -2.203373    0.323597    0.011064
      3          7           0       -1.159640   -0.569365   -0.037414
      4          6           0        0.188905   -0.289295    0.001673
      5          7           0        1.055746   -1.226450   -0.018086
      6          6           0        2.390453   -0.633435    0.077660
      7          6           0        2.226349    0.894626   -0.143270
      8          6           0        0.721360    1.129975    0.102686
      9          1           0       -4.049081    0.711009    0.024096
     10          1           0       -1.877814    1.365645    0.080123
     11          1           0       -1.409321   -1.549141   -0.086568
     12          1           0        3.059544   -1.092428   -0.657837
     13          1           0        2.812827   -0.860691    1.066188
     14          1           0        2.481345    1.157398   -1.173832
     15          1           0        2.861315    1.492652    0.513815
     16          1           0        0.267124    1.809867   -0.624163
     17          1           0        0.512844    1.540387    1.098859
 ---------------------------------------------------------------------

 SCF Done:  E(RB3LYP) =  -360.219352175     A.U. after    1 cycles

 The electronic state is 1-A.
 Alpha  occ. eigenvalues --  -14.36807 -14.30204 -14.30154 -10.26088 -10.25560
 Alpha  occ. eigenvalues --  -10.20442 -10.20414 -10.19093  -0.98489  -0.92256
 Alpha  occ. eigenvalues --   -0.86352  -0.76948  -0.71639  -0.64123  -0.59785
 Alpha  occ. eigenvalues --   -0.58080  -0.50426  -0.48898  -0.47713  -0.46306
 Alpha  occ. eigenvalues --   -0.41919  -0.41713  -0.40411  -0.37201  -0.35619
 Alpha  occ. eigenvalues --   -0.35325  -0.30095  -0.27115  -0.25779  -0.22522
 Alpha virt. eigenvalues --   -0.00105   0.05697   0.08004   0.09724   0.11000
 Alpha virt. eigenvalues --    0.11253   0.13086   0.14754   0.16554   0.18023
 Alpha virt. eigenvalues --    0.18260   0.20737   0.22733   0.24328   0.28174

 Mulliken charges:
               1
     1  N   -0.471204
     2  C    0.093544
     3  N   -0.338365
     4  C    0.436356
     5  N   -0.295878
     6  C   -0.150849
     7  C   -0.229111
     8  C   -0.318812
     9  H    0.226752
    10  H    0.105158
    11  H    0.265828
    12  H    0.107811
    13  H    0.105760
    14  H    0.112565
    15  H    0.106032
    16  H    0.119583
    17  H    0.124833
 Sum of Mulliken charges =  -0.00000

 Dipole moment (field-independent basis, Debye):
    X=              1.2140    Y=              3.1157    Z=              0.2070  Tot=              3.3503
 Quadrupole moment (field-independent basis, Debye-Ang):
   XX=            -50.7232   YY=            -48.0720   ZZ=            -47.9441
   XY=             -3.0365   XZ=             -0.1980   YZ=              0.1514

  Exact polarizability: 116.682  -7.352  66.820   0.546   0.654  47.293
 Approx polarizability: 161.256 -16.099 103.643   1.089   1.477  73.295

                      1                      2                      3
                      A                      A                      A
 Frequencies --     87.6003               112.6866               168.7545
 Red. masses --      3.9433                 1.7617                 2.8175
 Frc consts  --      0.0178                 0.0132                 0.0473
 IR Inten    --      0.5418                 2.2653                 4.7055

                      4                      5                      6
                      A                      A                      A
 Frequencies --    180.9161               257.4209               424.7897
 Red. masses --      2.6711                 3.2754                 5.2540
 Frc consts  --      0.0515                 0.1279                 0.5586
 IR Inten    --      4.7420                 4.8722                32.6822

                      7                      8                      9
                      A                      A                      A
 Frequencies --    473.0952               530.7463               665.4541
 Red. masses --      4.3830                 2.4607                 2.0459
 Frc consts  --      0.5780                 0.4084                 0.5338
 IR Inten    --     14.3847                 1.2972                 3.8016

                     10                     11                     12
                      A                      A                      A
 Frequencies --    697.5702               760.9240               804.7859
 Red. masses --      1.2381                 3.5301                 1.3838
 Frc consts  --      0.3550                 1.2043                 0.5281
 IR Inten    --    117.7911                17.7607                17.9572

                     13                     14                     15
                      A                      A                      A
 Frequencies --    815.5556               878.2247               900.1453
 Red. masses --      2.4073                 2.9975                 1.6376
 Frc consts  --      0.9434                 1.3622                 0.7818
 IR Inten    --      5.2804                 4.3982                 1.0562

                     16                     17                     18
                      A                      A                      A
 Frequencies --    924.2490              1011.5054              1032.5398
 Red. masses --      2.3200                 2.5504                 3.7427
 Frc consts  --      1.1677                 1.5374                 2.3510
 IR Inten    --      4.6761                24.3389                39.5897

                     19                     20                     21
                      A                      A                      A
 Frequencies --   1057.6842              1080.3669              1123.0888
 Red. masses --      1.2888                 1.7470                 1.4012
 Frc consts  --      0.8495                 1.2014                 1.0413
 IR Inten    --      0.4886                 0.2981               102.0224

                     22                     23                     24
                      A                      A                      A
 Frequencies --   1178.9659              1222.1851              1238.3972
 Red. masses --      1.2723                 1.3014                 1.1719
 Frc consts  --      1.0419                 1.1453                 1.0589
 IR Inten    --      2.5839                12.2471                 0.8009

                     25                     26                     27
                      A                      A                      A
 Frequencies --   1285.2847              1321.1569              1324.9604
 Red. masses --      1.3442                 1.4874                 1.3435
 Frc consts  --      1.3083                 1.5296                 1.3896
 IR Inten    --     11.2585                61.6828                40.3260

                     28                     29                     30
                      A                      A                      A
 Frequencies --   1340.5448              1384.2964              1411.6670
 Red. masses --      1.4948                 1.5956                 2.2570
 Frc consts  --      1.5827                 1.8015                 2.6500
 IR Inten    --      8.6292                15.9457               179.3449

                     31                     32                     33
                      A                      A                      A
 Frequencies --   1460.2275              1479.5501              1496.3167
 Red. masses --      3.3182                 1.0973                 1.0949
 Frc consts  --      4.1686                 1.4153                 1.4444
 IR Inten    --     21.4532                 1.9463                 5.0718

                     34                     35                     36
                      A                      A                      A
 Frequencies --   1512.8218              1720.0897              1736.2649
 Red. masses --      1.1050                 8.0712                 4.6575
 Frc consts  --      1.4900                14.0698                 8.2725
 IR Inten    --      4.2313               129.5670               618.5531

                     37                     38                     39
                      A                      A                      A
 Frequencies --   3011.8460              3031.4536              3055.0701
 Red. masses --      1.0697                 1.0648                 1.0813
 Frc consts  --      5.7170                 5.7651                 5.9462
 IR Inten    --     63.5059                22.8644                13.8351

                     40                     41                     42
                      A                      A                      A
 Frequencies --   3066.9201              3078.7425              3085.7738
 Red. masses --      1.0798                 1.0902                 1.0890
 Frc consts  --      5.9841                 6.0882                 6.1095
 IR Inten    --     47.0925                 7.8906                36.5081

                     43                     44                     45
                      A                      A                      A
 Frequencies --   3113.3955              3519.6105              3588.9822
 Red. masses --      1.1046                 1.0761                 1.0750
 Frc consts  --      6.3087                 7.8543                 8.1583
 IR Inten    --     31.4688                 6.9375                37.0117

 - Thermochemistry -
 -------------------
 Temperature   298.150 Kelvin.  Pressure   1.00000 Atm.
 Atom     1 has atomic number  7 and mass  14.00307

 Molecular mass:   111.07965 amu.
 Principal axes and moments of inertia in atomic units:
                           1         2         3
     Eigenvalues --   281.719941605.996541849.59526
           X            1.00000  -0.00111  -0.00040
           Y            0.00111   1.00000   0.00062
           Z            0.00040  -0.00062   1.00000
 This molecule is an asymmetric top.
 Rotational symmetry number  1.
 Rotational temperatures (Kelvin)      0.30745     0.05393     0.04683
 Rotational constants (GHZ):           6.40615     1.12375     0.97575
 Zero-point vibrational energy     380727.3 (Joules/Mol)
                                   90.99600 (Kcal/Mol)
 Warning -- explicit consideration of   8 degrees of freedom as
           vibrations may cause significant error
 Vibrational temperatures:    126.04   162.13   242.80   260.30   370.37
          (Kelvin)            611.18   680.68   763.63   957.44  1003.65
                             1094.80  1157.91  1173.40  1263.57  1295.11
                             1329.79  1455.33  1485.59  1521.77  1554.41
                             1615.87  1696.27  1758.45  1781.78  1849.24
                             1900.85  1906.32  1928.75  1991.69  2031.07
                             2100.94  2128.74  2152.87  2176.61  2474.83
                             2498.10  4333.37  4361.59  4395.56  4412.61
                             4429.62  4439.74  4479.48  5063.93  5163.74

 Zero-point correction=                           0.145011 (Hartree/Particle)
 Thermal correction to Energy=                    0.152645
 Thermal correction to Enthalpy=                  0.153590
 Thermal correction to Gibbs Free Energy=         0.112623
 Sum of electronic and zero-point Energies=           -360.074341
 Sum of electronic and thermal Energies=              -360.066707
 Sum of electronic and thermal Enthalpies=            -360.065763
 Sum of electronic and thermal Free Energies=         -360.106730

                     E (Thermal)             CV                S
                      KCal/Mol        Cal/Mol-Kelvin    Cal/Mol-Kelvin
 Total                   95.786             27.806             86.223
 Electronic               0.000              0.000              0.000
 Translational            0.889              2.981             40.031
 Rotational               0.889              2.981             28.217
 Vibrational             94.009             21.844             17.975
 Vibration     1          0.601              1.958              3.713
 Vibration     2          0.607              1.939              3.222
 Vibration     3          0.625              1.881              2.449
 Vibration     4          0.630              1.866              2.319
 Vibration     5          0.667              1.750              1.679
 Vibration     6          0.787              1.416              0.876
 Vibration     7          0.830              1.310              0.729
 Vibration     8          0.886              1.182              0.586

 Optimization completed.
    -- Stationary point found.
 Normal termination of Gaussian 16 at Tue Jun  1 02:16:43 2021.
