 Gaussian 16, Revision A.03,
 Gaussian 16:  ES64L-G16RevA.03 25-Dec-2016

 -----------------------------
 # opt freq b3lyp/6-31g(2df,p)
 -----------------------------

 -------------------
 Title Card Required
 -------------------
 Symbolic Z-matrix:
 Charge =  0 Multiplicity = 1

 SCF Done:  E(RB3LYP) =  -449.959213162     A.U. after   13 cycles
 SCF Done:  E(RB3LYP) =  -449.973605788     A.U. after   12 cycles
 SCF Done:  E(RB3LYP) =  -449.976473745     A.U. after   12 cycles
 SCF Done:  E(RB3LYP) =  -449.978234866     A.U. after   12 cycles
 SCF Done:  E(RB3LYP) =  -449.980002335     A.U. after   12 cycles
 SCF Done:  E(RB3LYP) =  -449.981920019     A.U. after   12 cycles
 SCF Done:  E(RB3LYP) =  -449.982904898     A.U. after   12 cycles
 SCF Done:  E(RB3LYP) =  -449.983999121     A.U. after   13 cycles
 SCF Done:  E(RB3LYP) =  -449.983631499     A.U. after   14 cycles
 SCF Done:  E(RB3LYP) =  -449.986496631     A.U. after   12 cycles
 SCF Done:  E(RB3LYP) =  -449.989368238     A.U. after   10 cycles
 SCF Done:  E(RB3LYP) =  -449.989430184     A.U. after   11 cycles
 SCF Done:  E(RB3LYP) =  -449.989466762     A.U. after   10 cycles
 SCF Done:  E(RB3LYP) =  -449.989533902     A.U. after   10 cycles
 SCF Done:  E(RB3LYP) =  -449.989561894     A.U. after   10 cycles
 SCF Done:  E(RB3LYP) =  -449.989563851     A.U. after   10 cycles
 SCF Done:  E(RB3LYP) =  -449.989569005     A.U. after    9 cycles
 SCF Done:  E(RB3LYP) =  -449.989570311     A.U. after    9 cycles
 SCF Done:  E(RB3LYP) =  -449.989570628     A.U. after    8 cycles
 Optimization completed.
    -- Stationary point found.
 Normal termination of Gaussian 16 at Mon May 31 19:28:27 2021.

 ----------------------------------------------------------------------
 #N Geom=AllCheck Guess=TCheck SCRF=Check GenChk RB3LYP/6-31G(2df,p) Fr
 eq
 ----------------------------------------------------------------------

 Structure from the checkpoint file:  "NdCNCNNpNpCN.chk"
 -------------------
 Title Card Required
 -------------------
 Charge =  0 Multiplicity = 1

                         Standard orientation:
 ---------------------------------------------------------------------
 Center     Atomic      Atomic             Coordinates (Angstroms)
 Number     Number       Type             X           Y           Z
 ---------------------------------------------------------------------
      1          7           0        4.149729   -0.621214   -0.376815
      2          6           0        3.092989   -0.391292    0.299903
      3          7           0        2.197477    0.584323   -0.042448
      4          6           0        0.875007    0.676918    0.506974
      5          7           0       -0.105590    0.024869   -0.379477
      6          7           0       -1.426770    0.162388    0.211276
      7          7           0       -1.876309    1.463312   -0.182363
      8          6           0       -2.284452   -0.899459   -0.323733
      9          7           0       -3.602238   -0.761163    0.268591
     10          1           0        4.701726   -1.348843    0.070599
     11          1           0        2.802035   -0.909733    1.224561
     12          1           0        2.365066    1.034522   -0.931411
     13          1           0        0.562629    1.720014    0.593985
     14          1           0        0.884218    0.243003    1.517274
     15          1           0        0.098302   -0.973436   -0.378019
     16          1           0       -2.789743    1.564211    0.253412
     17          1           0       -2.032386    1.460788   -1.198488
     18          1           0       -1.784200   -1.857520   -0.101092
     19          1           0       -2.383483   -0.816731   -1.421421
     20          1           0       -3.595057   -1.095242    1.226580
     21          1           0       -4.284466   -1.305641   -0.246191
 ---------------------------------------------------------------------

 SCF Done:  E(RB3LYP) =  -449.989570628     A.U. after    1 cycles

 The electronic state is 1-A.
 Alpha  occ. eigenvalues --  -14.37084 -14.34207 -14.33977 -14.32941 -14.32650
 Alpha  occ. eigenvalues --  -14.27924 -10.24119 -10.24105 -10.23564  -1.00890
 Alpha  occ. eigenvalues --   -0.94838  -0.89497  -0.86962  -0.83786  -0.74460
 Alpha  occ. eigenvalues --   -0.65929  -0.62464  -0.60495  -0.53605  -0.51514
 Alpha  occ. eigenvalues --   -0.50012  -0.47837  -0.46811  -0.45590  -0.44126
 Alpha  occ. eigenvalues --   -0.41998  -0.41243  -0.41101  -0.39030  -0.34679
 Alpha  occ. eigenvalues --   -0.30604  -0.26036  -0.25601  -0.25060  -0.22178
 Alpha  occ. eigenvalues --   -0.19986
 Alpha virt. eigenvalues --    0.04258   0.06919   0.08593   0.10203   0.11240
 Alpha virt. eigenvalues --    0.11407   0.12956   0.13458   0.14974   0.16256
 Alpha virt. eigenvalues --    0.17403   0.18787   0.19275   0.19452   0.21088

 Mulliken charges:
               1
     1  N   -0.479210
     2  C    0.083611
     3  N   -0.236540
     4  C   -0.086578
     5  N   -0.277605
     6  N   -0.093065
     7  N   -0.427428
     8  C   -0.080746
     9  N   -0.505414
    10  H    0.216404
    11  H    0.082110
    12  H    0.250497
    13  H    0.138254
    14  H    0.101024
    15  H    0.216756
    16  H    0.246652
    17  H    0.207173
    18  H    0.084065
    19  H    0.089024
    20  H    0.235636
    21  H    0.235379
 Sum of Mulliken charges =  -0.00000

 Dipole moment (field-independent basis, Debye):
    X=             -3.6067    Y=             -2.4491    Z=              1.0063  Tot=              4.4743
 Quadrupole moment (field-independent basis, Debye-Ang):
   XX=            -58.8040   YY=            -51.6767   ZZ=            -54.3830
   XY=              3.2032   XZ=              6.7000   YZ=             -3.2239

  Exact polarizability: 112.339  -8.912  71.479  -2.583  -2.431  64.698
 Approx polarizability: 135.670 -16.050 106.329  -8.152  -2.377 101.335

                      1                      2                      3
                      A                      A                      A
 Frequencies --     40.8431                49.9008                73.3455
 Red. masses --      4.6884                 3.8077                 2.9578
 Frc consts  --      0.0046                 0.0056                 0.0094
 IR Inten    --      1.4616                 2.1940                 3.8870

                      4                      5                      6
                      A                      A                      A
 Frequencies --    135.4606               155.7051               216.6669
 Red. masses --      3.3034                 2.0693                 3.0238
 Frc consts  --      0.0357                 0.0296                 0.0836
 IR Inten    --      1.3126                 5.2299                 4.0175

                      7                      8                      9
                      A                      A                      A
 Frequencies --    253.0448               293.5262               308.9333
 Red. masses --      1.1668                 1.2522                 2.6228
 Frc consts  --      0.0440                 0.0636                 0.1475
 IR Inten    --     28.6202                40.3159                12.2418

                     10                     11                     12
                      A                      A                      A
 Frequencies --    348.0367               356.8661               454.7389
 Red. masses --      3.3602                 2.7037                 3.6606
 Frc consts  --      0.2398                 0.2029                 0.4460
 IR Inten    --      2.4132                17.0384                 3.6163

                     13                     14                     15
                      A                      A                      A
 Frequencies --    504.2881               567.5920               612.8296
 Red. masses --      2.4673                 2.0263                 1.8250
 Frc consts  --      0.3697                 0.3846                 0.4038
 IR Inten    --     15.0419                87.3948               101.8274

                     16                     17                     18
                      A                      A                      A
 Frequencies --    648.3726               790.8913               812.9773
 Red. masses --      3.2136                 1.3350                 1.7404
 Frc consts  --      0.7960                 0.4920                 0.6777
 IR Inten    --      9.1827                18.7950               113.9094

                     19                     20                     21
                      A                      A                      A
 Frequencies --    846.6549               873.1302               971.9140
 Red. masses --      1.3248                 2.5097                 2.0591
 Frc consts  --      0.5595                 1.1273                 1.1460
 IR Inten    --     49.6576                74.1456                52.3139

                     22                     23                     24
                      A                      A                      A
 Frequencies --   1002.8215              1024.2570              1040.0196
 Red. masses --      2.0579                 2.2592                 2.2387
 Frc consts  --      1.2193                 1.3965                 1.4267
 IR Inten    --     22.1985                32.3166                11.0246

                     25                     26                     27
                      A                      A                      A
 Frequencies --   1055.2353              1100.9825              1121.2205
 Red. masses --      1.3116                 1.8462                 2.7511
 Frc consts  --      0.8605                 1.3185                 2.0377
 IR Inten    --      1.6106                53.5545                35.7695

                     28                     29                     30
                      A                      A                      A
 Frequencies --   1142.5064              1191.0324              1202.1794
 Red. masses --      1.5593                 1.6675                 2.2600
 Frc consts  --      1.1992                 1.3937                 1.9244
 IR Inten    --     24.7016               120.2606                98.2364

                     31                     32                     33
                      A                      A                      A
 Frequencies --   1246.1833              1273.8300              1339.2058
 Red. masses --      1.5372                 1.3934                 1.2713
 Frc consts  --      1.4065                 1.3321                 1.3433
 IR Inten    --     20.6568                 8.7478                 7.5345

                     34                     35                     36
                      A                      A                      A
 Frequencies --   1351.0079              1355.7710              1390.6286
 Red. masses --      1.4573                 1.2266                 1.2438
 Frc consts  --      1.5671                 1.3284                 1.4172
 IR Inten    --     60.1708                 5.1748                 3.4620

                     37                     38                     39
                      A                      A                      A
 Frequencies --   1414.7291              1432.9685              1475.0183
 Red. masses --      1.5042                 1.3807                 1.8263
 Frc consts  --      1.7737                 1.6704                 2.3411
 IR Inten    --     40.8642                25.0743                15.3177

                     40                     41                     42
                      A                      A                      A
 Frequencies --   1496.9202              1505.9201              1514.6000
 Red. masses --      1.2372                 1.0891                 1.0981
 Frc consts  --      1.6334                 1.4552                 1.4842
 IR Inten    --     59.4951                 1.6665                 0.2028

                     43                     44                     45
                      A                      A                      A
 Frequencies --   1647.0110              1648.0789              1738.1037
 Red. masses --      1.0932                 1.0908                 4.7452
 Frc consts  --      1.7471                 1.7456                 8.4461
 IR Inten    --     21.5401                24.7322               409.5272

                     46                     47                     48
                      A                      A                      A
 Frequencies --   2930.9567              2967.5818              3001.6641
 Red. masses --      1.0534                 1.1061                 1.0707
 Frc consts  --      5.3317                 5.7393                 5.6837
 IR Inten    --     65.5093                71.4161                25.9002

                     49                     50                     51
                      A                      A                      A
 Frequencies --   3021.4684              3102.8746              3331.6400
 Red. masses --      1.0842                 1.0942                 1.0584
 Frc consts  --      5.8318                 6.2067                 6.9220
 IR Inten    --     70.1698                10.6793                22.2354

                     52                     53                     54
                      A                      A                      A
 Frequencies --   3472.5634              3513.6254              3516.9898
 Red. masses --      1.0739                 1.0494                 1.0759
 Frc consts  --      7.6298                 7.6331                 7.8409
 IR Inten    --      0.4635                 0.7416                 1.7099

                     55                     56                     57
                      A                      A                      A
 Frequencies --   3540.1206              3600.8589              3605.1520
 Red. masses --      1.0802                 1.0931                 1.0748
 Frc consts  --      7.9760                 8.3507                 8.2308
 IR Inten    --      8.1902                 2.9117                20.8651

 - Thermochemistry -
 -------------------
 Temperature   298.150 Kelvin.  Pressure   1.00000 Atm.
 Atom     1 has atomic number  7 and mass  14.00307

 Molecular mass:   132.11234 amu.
 Principal axes and moments of inertia in atomic units:
                           1         2         3
     Eigenvalues --   381.958913092.876333318.90582
           X            0.99998   0.00303   0.00612
           Y           -0.00289   0.99974  -0.02255
           Z           -0.00619   0.02253   0.99973
 This molecule is an asymmetric top.
 Rotational symmetry number  1.
 Rotational temperatures (Kelvin)      0.22676     0.02800     0.02610
 Rotational constants (GHZ):           4.72496     0.58352     0.54378
 Zero-point vibrational energy     482283.1 (Joules/Mol)
                                  115.26844 (Kcal/Mol)
 Warning -- explicit consideration of  15 degrees of freedom as
           vibrations may cause significant error
 Vibrational temperatures:     58.76    71.80   105.53   194.90   224.02
          (Kelvin)            311.74   364.07   422.32   444.49   500.75
                              513.45   654.27   725.56   816.64   881.73
                              932.86  1137.92  1169.69  1218.15  1256.24
                             1398.37  1442.84  1473.68  1496.36  1518.25
                             1584.07  1613.19  1643.81  1713.63  1729.67
                             1792.98  1832.76  1926.82  1943.80  1950.65
                             2000.80  2035.48  2061.72  2122.22  2153.73
                             2166.68  2179.17  2369.68  2371.22  2500.74
                             4216.99  4269.69  4318.73  4347.22  4464.34
                             4793.49  4996.24  5055.32  5060.16  5093.44
                             5180.83  5187.01

 Zero-point correction=                           0.183692 (Hartree/Particle)
 Thermal correction to Energy=                    0.194481
 Thermal correction to Enthalpy=                  0.195426
 Thermal correction to Gibbs Free Energy=         0.146432
 Sum of electronic and zero-point Energies=           -449.805879
 Sum of electronic and thermal Energies=              -449.795089
 Sum of electronic and thermal Enthalpies=            -449.794145
 Sum of electronic and thermal Free Energies=         -449.843138

                     E (Thermal)             CV                S
                      KCal/Mol        Cal/Mol-Kelvin    Cal/Mol-Kelvin
 Total                  122.039             38.231            103.115
 Electronic               0.000              0.000              0.000
 Translational            0.889              2.981             40.548
 Rotational               0.889              2.981             29.751
 Vibrational            120.262             32.269             32.816
 Vibration     1          0.594              1.981              5.218
 Vibration     2          0.595              1.978              4.821
 Vibration     3          0.599              1.967              4.061
 Vibration     4          0.613              1.918              2.867
 Vibration     5          0.620              1.896              2.601
 Vibration     6          0.646              1.816              1.987
 Vibration     7          0.664              1.758              1.709
 Vibration     8          0.688              1.686              1.454
 Vibration     9          0.698              1.657              1.368
 Vibration    10          0.726              1.579              1.175
 Vibration    11          0.732              1.561              1.136
 Vibration    12          0.813              1.350              0.782
 Vibration    13          0.860              1.240              0.647
 Vibration    14          0.924              1.101              0.509
 Vibration    15          0.972              1.005              0.428

 Optimization completed.
    -- Stationary point found.
 Normal termination of Gaussian 16 at Mon May 31 19:53:08 2021.
