 Gaussian 16, Revision A.03,
 Gaussian 16:  ES64L-G16RevA.03 25-Dec-2016

 -----------------------------
 # opt freq b3lyp/6-31g(2df,p)
 -----------------------------

 -------------------
 Title Card Required
 -------------------
 Symbolic Z-matrix:
 Charge =  0 Multiplicity = 1

 SCF Done:  E(RB3LYP) =  -463.494752303     A.U. after   15 cycles
 SCF Done:  E(RB3LYP) =  -463.508080576     A.U. after   15 cycles
 SCF Done:  E(RB3LYP) =  -463.510764036     A.U. after   12 cycles
 SCF Done:  E(RB3LYP) =  -463.511175850     A.U. after   11 cycles
 SCF Done:  E(RB3LYP) =  -463.511211944     A.U. after   10 cycles
 SCF Done:  E(RB3LYP) =  -463.511218043     A.U. after    8 cycles
 Optimization completed.
    -- Stationary point found.
 Normal termination of Gaussian 16 at Mon May 31 23:55:06 2021.

 ----------------------------------------------------------------------
 #N Geom=AllCheck Guess=TCheck SCRF=Check GenChk RB3LYP/6-31G(2df,p) Fr
 eq
 ----------------------------------------------------------------------

 Structure from the checkpoint file:  "NdCNpCNdNpNNdN.chk"
 -------------------
 Title Card Required
 -------------------
 Charge =  0 Multiplicity = 1

                         Standard orientation:
 ---------------------------------------------------------------------
 Center     Atomic      Atomic             Coordinates (Angstroms)
 Number     Number       Type             X           Y           Z
 ---------------------------------------------------------------------
      1          7           0        1.737309    2.038179   -0.000002
      2          6           0        0.496691    1.757267   -0.000001
      3          7           0       -0.059398    0.496867    0.000002
      4          6           0        0.530872   -0.836079    0.000003
      5          7           0        1.997854   -0.799683   -0.000022
      6          7           0        2.450447   -1.953499    0.000015
      7          7           0       -1.459988    0.471377    0.000017
      8          7           0       -2.120811   -0.661350   -0.000004
      9          7           0       -3.377389   -0.501108   -0.000007
     10          1           0        1.846074    3.049964   -0.000005
     11          1           0       -0.306029    2.508717   -0.000002
     12          1           0        0.179468   -1.386038   -0.881223
     13          1           0        0.179493   -1.386028    0.881244
     14          1           0        3.479588   -1.859126   -0.000011
     15          1           0       -1.956060    1.357950    0.000015
     16          1           0       -3.764076   -1.448047   -0.000018
 ---------------------------------------------------------------------

 SCF Done:  E(RB3LYP) =  -463.511218043     A.U. after    1 cycles

 The electronic state is 1-A.
 Alpha  occ. eigenvalues --  -14.42985 -14.42186 -14.41185 -14.39640 -14.38261
 Alpha  occ. eigenvalues --  -14.33731 -14.29643 -10.26750 -10.26383  -1.10207
 Alpha  occ. eigenvalues --   -1.04544  -1.00124  -0.90007  -0.84441  -0.77967
 Alpha  occ. eigenvalues --   -0.68786  -0.65955  -0.59293  -0.56063  -0.51225
 Alpha  occ. eigenvalues --   -0.50961  -0.48896  -0.47040  -0.46475  -0.45111
 Alpha  occ. eigenvalues --   -0.42461  -0.40653  -0.38900  -0.35544  -0.29511
 Alpha  occ. eigenvalues --   -0.27308  -0.25157  -0.23169  -0.20192
 Alpha virt. eigenvalues --   -0.05673  -0.01744   0.02863   0.06256   0.07916
 Alpha virt. eigenvalues --    0.09943   0.11111   0.12559   0.15149   0.17498
 Alpha virt. eigenvalues --    0.17544   0.19474   0.20537   0.28006   0.30844

 Mulliken charges:
               1
     1  N   -0.463676
     2  C    0.104058
     3  N   -0.044882
     4  C   -0.021206
     5  N   -0.117446
     6  N   -0.257138
     7  N   -0.119516
     8  N   -0.057462
     9  N   -0.393570
    10  H    0.224496
    11  H    0.086763
    12  H    0.152284
    13  H    0.152282
    14  H    0.258215
    15  H    0.252719
    16  H    0.244081
 Sum of Mulliken charges =  -0.00000

 Dipole moment (field-independent basis, Debye):
    X=             -0.3929    Y=              0.6938    Z=             -0.0000  Tot=              0.7973
 Quadrupole moment (field-independent basis, Debye-Ang):
   XX=            -56.9344   YY=            -45.9054   ZZ=            -52.5382
   XY=             -2.5944   XZ=              0.0000   YZ=              0.0002

  Exact polarizability: 118.760  14.947  85.709   0.000  -0.000  37.565
 Approx polarizability: 179.736  30.802 127.166   0.001  -0.000  59.713

 ******    4 imaginary frequencies (negative Signs) ******

                      1                      2                      3
                      A                      A                      A
 Frequencies --   -278.9209              -185.4031              -151.3256
 Red. masses --      2.5973                 7.5819                 3.4511
 Frc consts  --      0.1191                 0.1536                 0.0466
 IR Inten    --      7.1256                 3.2870                 0.0099

                      4                      5                      6
                      A                      A                      A
 Frequencies --    -94.1625                82.2535               150.6944
 Red. masses --      2.9449                 4.9655                 5.6540
 Frc consts  --      0.0154                 0.0198                 0.0756
 IR Inten    --      0.5470                 2.1017                 0.8725

                      7                      8                      9
                      A                      A                      A
 Frequencies --    158.9321               217.5803               339.3627
 Red. masses --      2.4642                 5.3827                 5.1848
 Frc consts  --      0.0367                 0.1501                 0.3518
 IR Inten    --     39.7713                 4.3941                 3.0401

                     10                     11                     12
                      A                      A                      A
 Frequencies --    425.8557               483.5056               487.2631
 Red. masses --      6.7649                 1.8336                 8.7349
 Frc consts  --      0.7228                 0.2526                 1.2219
 IR Inten    --      0.6333                86.8546                 3.9057

                     13                     14                     15
                      A                      A                      A
 Frequencies --    548.8782               759.3263               778.8861
 Red. masses --      4.2559                 1.3182                 4.7225
 Frc consts  --      0.7554                 0.4478                 1.6880
 IR Inten    --     18.4136                28.8219               127.7574

                     16                     17                     18
                      A                      A                      A
 Frequencies --    803.7488               865.5731               886.9357
 Red. masses --      1.1609                 1.1246                 3.2196
 Frc consts  --      0.4419                 0.4964                 1.4922
 IR Inten    --     13.3515                47.7581                61.6106

                     19                     20                     21
                      A                      A                      A
 Frequencies --   1004.8117              1016.4311              1102.3169
 Red. masses --      4.0050                 1.2890                 1.4207
 Frc consts  --      2.3825                 0.7846                 1.0171
 IR Inten    --     13.9559                 6.1444                33.0754

                     22                     23                     24
                      A                      A                      A
 Frequencies --   1147.9880              1193.6231              1261.0234
 Red. masses --      4.6253                 1.4782                 1.0528
 Frc consts  --      3.5914                 1.2408                 0.9864
 IR Inten    --    232.0936               101.1748                 0.5558

                     25                     26                     27
                      A                      A                      A
 Frequencies --   1268.3580              1366.4493              1393.1222
 Red. masses --      1.7822                 2.2525                 1.7346
 Frc consts  --      1.6893                 2.4780                 1.9834
 IR Inten    --     15.9431               137.1608                15.0553

                     28                     29                     30
                      A                      A                      A
 Frequencies --   1456.0150              1461.5140              1484.2191
 Red. masses --      1.4131                 1.3993                 1.3072
 Frc consts  --      1.7650                 1.7610                 1.6966
 IR Inten    --     11.8586               102.5368                21.4095

                     31                     32                     33
                      A                      A                      A
 Frequencies --   1488.0481              1509.8178              1563.4470
 Red. masses --      1.3737                 2.5728                 2.9014
 Frc consts  --      1.7921                 3.4555                 4.1785
 IR Inten    --      8.5172               127.3331               116.2405

                     34                     35                     36
                      A                      A                      A
 Frequencies --   1658.6842              1734.9118              3000.1913
 Red. masses --     10.4124                 5.0931                 1.0841
 Frc consts  --     16.8784                 9.0321                 5.7492
 IR Inten    --      0.7819               386.0463                60.1781

                     37                     38                     39
                      A                      A                      A
 Frequencies --   3022.9599              3063.1111              3276.6121
 Red. masses --      1.0559                 1.1064                 1.0746
 Frc consts  --      5.6849                 6.1164                 6.7976
 IR Inten    --     15.9577                 8.5757                13.6007

                     40                     41                     42
                      A                      A                      A
 Frequencies --   3425.6823              3509.0851              3510.6579
 Red. masses --      1.0750                 1.0754                 1.0758
 Frc consts  --      7.4330                 7.8018                 7.8121
 IR Inten    --      2.1290                10.3053                 8.9824

 - Thermochemistry -
 -------------------
 Temperature   298.150 Kelvin.  Pressure   1.00000 Atm.
 Atom     1 has atomic number  7 and mass  14.00307

 Molecular mass:   129.07629 amu.
 Principal axes and moments of inertia in atomic units:
                           1         2         3
     Eigenvalues --   752.856111702.298062443.97461
           X            1.00000   0.00257   0.00000
           Y           -0.00257   1.00000   0.00000
           Z           -0.00000  -0.00000   1.00000
 This molecule is an asymmetric top.
 Rotational symmetry number  1.
 Warning -- assumption of classical behavior for rotation
           may cause significant error
 Rotational temperatures (Kelvin)      0.11505     0.05088     0.03544
 Rotational constants (GHZ):           2.39719     1.06018     0.73845
    4 imaginary frequencies ignored.
 Zero-point vibrational energy     316459.4 (Joules/Mol)
                                   75.63561 (Kcal/Mol)
 Warning -- explicit consideration of   9 degrees of freedom as
           vibrations may cause significant error
 Vibrational temperatures:    118.34   216.82   228.67   313.05   488.27
          (Kelvin)            612.71   695.66   701.06   789.71  1092.50
                             1120.64  1156.42  1245.37  1276.10  1445.70
                             1462.42  1585.99  1651.70  1717.36  1814.33
                             1824.88  1966.02  2004.39  2094.88  2102.79
                             2135.46  2140.97  2172.29  2249.45  2386.48
                             2496.15  4316.61  4349.37  4407.13  4714.31
                             4928.79  5048.79  5051.05

 Zero-point correction=                           0.120533 (Hartree/Particle)
 Thermal correction to Energy=                    0.127839
 Thermal correction to Enthalpy=                  0.128783
 Thermal correction to Gibbs Free Energy=         0.087649
 Sum of electronic and zero-point Energies=           -463.390685
 Sum of electronic and thermal Energies=              -463.383379
 Sum of electronic and thermal Enthalpies=            -463.382435
 Sum of electronic and thermal Free Energies=         -463.423569

                     E (Thermal)             CV                S
                      KCal/Mol        Cal/Mol-Kelvin    Cal/Mol-Kelvin
 Total                   80.220             25.925             86.574
 Electronic               0.000              0.000              0.000
 Translational            0.889              2.981             40.479
 Rotational               0.889              2.981             29.528
 Vibrational             78.443             19.963             16.567
 Vibration     1          0.600              1.961              3.836
 Vibration     2          0.618              1.902              2.663
 Vibration     3          0.621              1.893              2.562
 Vibration     4          0.646              1.814              1.979
 Vibration     5          0.719              1.597              1.215
 Vibration     6          0.788              1.414              0.872
 Vibration     7          0.840              1.287              0.701
 Vibration     8          0.843              1.278              0.691
 Vibration     9          0.904              1.142              0.547

 Optimization completed.
    -- Stationary point found.
 Normal termination of Gaussian 16 at Tue Jun  1 00:21:15 2021.
