 Gaussian 16, Revision A.03,
 Gaussian 16:  ES64L-G16RevA.03 25-Dec-2016

 -----------------------------
 # opt freq b3lyp/6-31g(2df,p)
 -----------------------------

 -------------------
 Title Card Required
 -------------------
 Symbolic Z-matrix:
 Charge =  0 Multiplicity = 1

 SCF Done:  E(RB3LYP) =  -480.721318230     A.U. after   15 cycles
 SCF Done:  E(RB3LYP) =  -480.734473697     A.U. after   13 cycles
 SCF Done:  E(RB3LYP) =  -480.740605324     A.U. after   12 cycles
 SCF Done:  E(RB3LYP) =  -480.745828066     A.U. after   14 cycles
 SCF Done:  E(RB3LYP) =  -480.753657476     A.U. after   15 cycles
 SCF Done:  E(RB3LYP) =  -480.756716218     A.U. after   13 cycles
 SCF Done:  E(RB3LYP) =  -480.758411671     A.U. after   12 cycles
 SCF Done:  E(RB3LYP) =  -480.759600842     A.U. after   14 cycles
 SCF Done:  E(RB3LYP) =  -480.760508023     A.U. after   12 cycles
 SCF Done:  E(RB3LYP) =  -480.760923048     A.U. after   13 cycles
 SCF Done:  E(RB3LYP) =  -480.769616519     A.U. after   11 cycles
 SCF Done:  E(RB3LYP) =  -480.769668915     A.U. after   12 cycles
 SCF Done:  E(RB3LYP) =  -480.769706568     A.U. after   13 cycles
 SCF Done:  E(RB3LYP) =  -480.769732661     A.U. after   12 cycles
 SCF Done:  E(RB3LYP) =  -480.769758565     A.U. after   12 cycles
 SCF Done:  E(RB3LYP) =  -480.769772530     A.U. after   12 cycles
 SCF Done:  E(RB3LYP) =  -480.769779188     A.U. after    9 cycles
 SCF Done:  E(RB3LYP) =  -480.769779956     A.U. after    9 cycles
 SCF Done:  E(RB3LYP) =  -480.769780090     A.U. after    8 cycles
 Optimization completed.
    -- Stationary point found.
 Normal termination of Gaussian 16 at Tue Jun  1 03:15:34 2021.

 ----------------------------------------------------------------------
 #N Geom=AllCheck Guess=TCheck SCRF=Check GenChk RB3LYP/6-31G(2df,p) Fr
 eq
 ----------------------------------------------------------------------

 Structure from the checkpoint file:  "NdCNpNdNNpNNN.chk"
 -------------------
 Title Card Required
 -------------------
 Charge =  0 Multiplicity = 1

                         Standard orientation:
 ---------------------------------------------------------------------
 Center     Atomic      Atomic             Coordinates (Angstroms)
 Number     Number       Type             X           Y           Z
 ---------------------------------------------------------------------
      1          7           0       -1.379999    2.161926   -0.232046
      2          6           0       -0.194218    1.764587   -0.022137
      3          7           0        0.161845    0.422311    0.142710
      4          7           0       -0.806161   -0.549238    0.480586
      5          7           0       -1.648893   -0.691020   -0.429589
      6          7           0       -2.565481   -1.637722   -0.144936
      7          7           0        1.373905    0.221952    0.840481
      8          7           0        2.117530   -0.889730    0.334306
      9          7           0        2.714000   -0.612880   -0.918815
     10          1           0       -1.387407    3.174269   -0.339342
     11          1           0        0.708365    2.378891    0.045960
     12          1           0       -3.423396   -1.477169   -0.650298
     13          1           0       -2.670420   -1.865688    0.840536
     14          1           0        1.154354   -0.013003    1.809224
     15          1           0        1.479091   -1.669240    0.176744
     16          1           0        3.487274    0.021634   -0.740967
     17          1           0        2.050224   -0.116424   -1.517921
 ---------------------------------------------------------------------

 SCF Done:  E(RB3LYP) =  -480.769780090     A.U. after    1 cycles

 The electronic state is 1-A.
 Alpha  occ. eigenvalues --  -14.41609 -14.40041 -14.39338 -14.38164 -14.38144
 Alpha  occ. eigenvalues --  -14.36785 -14.33384 -14.29920 -10.25239  -1.09943
 Alpha  occ. eigenvalues --   -1.03597  -0.96468  -0.89377  -0.88495  -0.80169
 Alpha  occ. eigenvalues --   -0.70004  -0.67904  -0.59573  -0.56614  -0.53270
 Alpha  occ. eigenvalues --   -0.51704  -0.50168  -0.49374  -0.46648  -0.45435
 Alpha  occ. eigenvalues --   -0.44148  -0.41357  -0.36286  -0.29722  -0.28372
 Alpha  occ. eigenvalues --   -0.28324  -0.26423  -0.25917  -0.24554  -0.22215
 Alpha virt. eigenvalues --   -0.03134   0.02508   0.07498   0.09540   0.10245
 Alpha virt. eigenvalues --    0.11626   0.12702   0.13395   0.15501   0.16754
 Alpha virt. eigenvalues --    0.17587   0.19864   0.21256   0.23904   0.24973

 Mulliken charges:
               1
     1  N   -0.454936
     2  C    0.114172
     3  N   -0.035322
     4  N   -0.133967
     5  N   -0.000838
     6  N   -0.375465
     7  N   -0.258633
     8  N   -0.232219
     9  N   -0.437824
    10  H    0.227377
    11  H    0.109569
    12  H    0.277824
    13  H    0.249686
    14  H    0.241695
    15  H    0.237988
    16  H    0.243055
    17  H    0.227837
 Sum of Mulliken charges =  -0.00000

 Dipole moment (field-independent basis, Debye):
    X=             -1.7382    Y=              0.4366    Z=              0.8531  Tot=              1.9848
 Quadrupole moment (field-independent basis, Debye-Ang):
   XX=            -48.7383   YY=            -48.2762   ZZ=            -51.8293
   XY=             10.6501   XZ=             -1.5912   YZ=             -2.5627

  Exact polarizability:  94.266   7.474  80.793   4.154  -2.944  53.125
 Approx polarizability: 136.412  10.030 114.408  14.448  -1.601  85.815

                      1                      2                      3
                      A                      A                      A
 Frequencies --     54.5891                83.6004                98.6286
 Red. masses --      4.6715                 5.1860                 3.3989
 Frc consts  --      0.0082                 0.0214                 0.0195
 IR Inten    --      3.8114                 2.2616                 9.8192

                      4                      5                      6
                      A                      A                      A
 Frequencies --    139.8767               183.9597               226.5611
 Red. masses --      3.3974                 3.4831                 2.8453
 Frc consts  --      0.0392                 0.0694                 0.0861
 IR Inten    --      8.8413                 4.8273                32.0083

                      7                      8                      9
                      A                      A                      A
 Frequencies --    269.6050               350.0628               404.6160
 Red. masses --      3.1885                 2.9138                 1.6972
 Frc consts  --      0.1365                 0.2104                 0.1637
 IR Inten    --      8.6466                 4.9639                15.4785

                     10                     11                     12
                      A                      A                      A
 Frequencies --    433.6727               498.6085               520.6846
 Red. masses --      3.0245                 2.5350                 1.5359
 Frc consts  --      0.3351                 0.3713                 0.2453
 IR Inten    --     76.5865                55.4175                39.4247

                     13                     14                     15
                      A                      A                      A
 Frequencies --    556.9414               578.2597               637.0684
 Red. masses --      3.8576                 2.7433                 1.5974
 Frc consts  --      0.7050                 0.5405                 0.3820
 IR Inten    --     55.4678                27.1067               288.0634

                     16                     17                     18
                      A                      A                      A
 Frequencies --    695.9242               794.2694               828.1407
 Red. masses --      3.5216                 1.4089                 3.2367
 Frc consts  --      1.0049                 0.5237                 1.3078
 IR Inten    --      5.7079                32.1220               155.6910

                     19                     20                     21
                      A                      A                      A
 Frequencies --    916.1068               930.8076               977.7519
 Red. masses --      2.9010                 3.4017                 2.0732
 Frc consts  --      1.4345                 1.7365                 1.1678
 IR Inten    --     64.7617                85.2827                64.5322

                     22                     23                     24
                      A                      A                      A
 Frequencies --   1053.4880              1068.8277              1107.7715
 Red. masses --      1.2952                 1.9455                 1.7619
 Frc consts  --      0.8469                 1.3095                 1.2739
 IR Inten    --      1.5204                50.4320                18.1434

                     25                     26                     27
                      A                      A                      A
 Frequencies --   1158.1782              1198.2705              1251.8683
 Red. masses --      2.4324                 2.5650                 2.2652
 Frc consts  --      1.9224                 2.1699                 2.0915
 IR Inten    --    103.9933                28.9026                57.8822

                     28                     29                     30
                      A                      A                      A
 Frequencies --   1293.4235              1315.0536              1352.0746
 Red. masses --      1.6506                 1.9165                 1.3939
 Frc consts  --      1.6269                 1.9528                 1.5014
 IR Inten    --     58.0291                28.6997                 1.7763

                     31                     32                     33
                      A                      A                      A
 Frequencies --   1396.7987              1491.4738              1525.8914
 Red. masses --      1.5188                 1.1844                 1.1242
 Frc consts  --      1.7459                 1.5523                 1.5421
 IR Inten    --     18.1897                 1.3332                 0.8322

                     34                     35                     36
                      A                      A                      A
 Frequencies --   1585.1171              1637.5898              1683.0028
 Red. masses --      5.7072                 1.1669                 1.0679
 Frc consts  --      8.4489                 1.8437                 1.7822
 IR Inten    --     68.9363                20.7279                 7.0992

                     37                     38                     39
                      A                      A                      A
 Frequencies --   1716.0161              3084.0979              3404.1713
 Red. masses --      6.0310                 1.0891                 1.0542
 Frc consts  --     10.4636                 6.1032                 7.1974
 IR Inten    --    236.6823                25.7447                 7.2037

                     40                     41                     42
                      A                      A                      A
 Frequencies --   3443.4771              3446.8697              3479.7627
 Red. masses --      1.0735                 1.0745                 1.0494
 Frc consts  --      7.4995                 7.5212                 7.4869
 IR Inten    --      2.3166                 3.0217                 8.5566

                     43                     44                     45
                      A                      A                      A
 Frequencies --   3508.0940              3540.6203              3665.4704
 Red. masses --      1.0759                 1.0857                 1.0950
 Frc consts  --      7.8015                 8.0189                 8.6679
 IR Inten    --      2.6680                 1.8335                46.1630

 - Thermochemistry -
 -------------------
 Temperature   298.150 Kelvin.  Pressure   1.00000 Atm.
 Atom     1 has atomic number  7 and mass  14.00307

 Molecular mass:   132.08719 amu.
 Principal axes and moments of inertia in atomic units:
                           1         2         3
     Eigenvalues --   831.961421566.412972128.00585
           X            0.99972   0.02242  -0.00798
           Y           -0.02251   0.99968  -0.01118
           Z            0.00773   0.01135   0.99991
 This molecule is an asymmetric top.
 Rotational symmetry number  1.
 Warning -- assumption of classical behavior for rotation
           may cause significant error
 Rotational temperatures (Kelvin)      0.10411     0.05529     0.04070
 Rotational constants (GHZ):           2.16926     1.15215     0.84809
 Zero-point vibrational energy     356410.3 (Joules/Mol)
                                   85.18410 (Kcal/Mol)
 Warning -- explicit consideration of  14 degrees of freedom as
           vibrations may cause significant error
 Vibrational temperatures:     78.54   120.28   141.90   201.25   264.68
          (Kelvin)            325.97   387.90   503.66   582.15   623.96
                              717.39   749.15   801.31   831.99   916.60
                             1001.28  1142.78  1191.51  1318.07  1339.22
                             1406.77  1515.73  1537.80  1593.84  1666.36
                             1724.04  1801.16  1860.95  1892.07  1945.33
                             2009.68  2145.90  2195.42  2280.63  2356.13
                             2421.47  2468.96  4437.33  4897.84  4954.40
                             4959.28  5006.60  5047.36  5094.16  5273.79

 Zero-point correction=                           0.135750 (Hartree/Particle)
 Thermal correction to Energy=                    0.145610
 Thermal correction to Enthalpy=                  0.146554
 Thermal correction to Gibbs Free Energy=         0.100155
 Sum of electronic and zero-point Energies=           -480.634031
 Sum of electronic and thermal Energies=              -480.624170
 Sum of electronic and thermal Enthalpies=            -480.623226
 Sum of electronic and thermal Free Energies=         -480.669626

                     E (Thermal)             CV                S
                      KCal/Mol        Cal/Mol-Kelvin    Cal/Mol-Kelvin
 Total                   91.372             35.003             97.657
 Electronic               0.000              0.000              0.000
 Translational            0.889              2.981             40.548
 Rotational               0.889              2.981             29.407
 Vibrational             89.594             29.041             27.702
 Vibration     1          0.596              1.976              4.644
 Vibration     2          0.600              1.960              3.805
 Vibration     3          0.604              1.950              3.481
 Vibration     4          0.615              1.913              2.806
 Vibration     5          0.631              1.862              2.288
 Vibration     6          0.650              1.801              1.906
 Vibration     7          0.674              1.729              1.599
 Vibration     8          0.727              1.575              1.166
 Vibration     9          0.770              1.460              0.946
 Vibration    10          0.794              1.397              0.847
 Vibration    11          0.854              1.253              0.662
 Vibration    12          0.876              1.204              0.608
 Vibration    13          0.912              1.125              0.530
 Vibration    14          0.935              1.078              0.489

 Optimization completed.
    -- Stationary point found.
 Normal termination of Gaussian 16 at Tue Jun  1 03:42:06 2021.
