 Gaussian 16, Revision A.03,
 Gaussian 16:  ES64L-G16RevA.03 25-Dec-2016

 -----------------------------
 # opt freq b3lyp/6-31g(2df,p)
 -----------------------------

 -------------------
 Title Card Required
 -------------------
 Symbolic Z-matrix:
 Charge =  0 Multiplicity = 1

 SCF Done:  E(RB3LYP) =  -336.910799685     A.U. after   14 cycles
 SCF Done:  E(RB3LYP) =  -336.918700157     A.U. after   12 cycles
 SCF Done:  E(RB3LYP) =  -336.919271845     A.U. after   11 cycles
 SCF Done:  E(RB3LYP) =  -336.919316280     A.U. after   10 cycles
 SCF Done:  E(RB3LYP) =  -336.919318469     A.U. after    8 cycles
 Optimization completed.
    -- Stationary point found.
 Normal termination of Gaussian 16 at Mon May 31 17:06:31 2021.

 ----------------------------------------------------------------------
 #N Geom=AllCheck Guess=TCheck SCRF=Check GenChk RB3LYP/6-31G(2df,p) Fr
 eq
 ----------------------------------------------------------------------

 Structure from the checkpoint file:  "NdCNCpdNpCdN.chk"
 -------------------
 Title Card Required
 -------------------
 Charge =  0 Multiplicity = 1

                         Standard orientation:
 ---------------------------------------------------------------------
 Center     Atomic      Atomic             Coordinates (Angstroms)
 Number     Number       Type             X           Y           Z
 ---------------------------------------------------------------------
      1          7           0       -2.992920   -0.498522   -0.000001
      2          6           0       -1.940035    0.212640    0.000000
      3          7           0       -0.697439   -0.387235    0.000002
      4          6           0        0.545171    0.229217    0.000000
      5          7           0        0.829181    1.471987   -0.000000
      6          6           0        1.683440   -0.756098    0.000001
      7          7           0        2.906864   -0.438848   -0.000001
      8          1           0       -3.823562    0.089313   -0.000002
      9          1           0       -1.902708    1.305287    0.000001
     10          1           0       -0.726335   -1.398478    0.000000
     11          1           0        0.018499    2.086718    0.000000
     12          1           0        1.410695   -1.817081   -0.000000
     13          1           0        2.972155    0.588015   -0.000001
 ---------------------------------------------------------------------

 SCF Done:  E(RB3LYP) =  -336.919318469     A.U. after    1 cycles

 The electronic state is 1-A.
 Alpha  occ. eigenvalues --  -14.39034 -14.33029 -14.32439 -14.32130 -10.28267
 Alpha  occ. eigenvalues --  -10.28016 -10.24352  -1.00341  -0.93300  -0.89952
 Alpha  occ. eigenvalues --   -0.86848  -0.71026  -0.61996  -0.60156  -0.56860
 Alpha  occ. eigenvalues --   -0.50746  -0.48995  -0.45780  -0.44138  -0.42728
 Alpha  occ. eigenvalues --   -0.36804  -0.31325  -0.30228  -0.28536  -0.27755
 Alpha  occ. eigenvalues --   -0.25720
 Alpha virt. eigenvalues --   -0.06342   0.00838   0.06218   0.07622   0.08590
 Alpha virt. eigenvalues --    0.09902   0.14041   0.16303   0.20198   0.23078
 Alpha virt. eigenvalues --    0.25268   0.27802   0.32370   0.34679   0.39345

 Mulliken charges:
               1
     1  N   -0.455176
     2  C    0.095568
     3  N   -0.314396
     4  C    0.361540
     5  N   -0.517578
     6  C    0.013376
     7  N   -0.377819
     8  H    0.237066
     9  H    0.110875
    10  H    0.265599
    11  H    0.223031
    12  H    0.107548
    13  H    0.250366
 Sum of Mulliken charges =  -0.00000

 Dipole moment (field-independent basis, Debye):
    X=             -2.7585    Y=              0.8945    Z=              0.0000  Tot=              2.8999
 Quadrupole moment (field-independent basis, Debye-Ang):
   XX=            -49.4832   YY=            -39.2361   ZZ=            -42.2330
   XY=             -4.9670   XZ=              0.0000   YZ=             -0.0000

  Exact polarizability:  96.448   6.366  60.884  -0.000   0.000  28.954
 Approx polarizability: 140.702  21.037 103.094  -0.000   0.000  45.475

                      1                      2                      3
                      A                      A                      A
 Frequencies --     78.2819               102.5921               159.1724
 Red. masses --      3.3491                 2.1288                 3.2673
 Frc consts  --      0.0121                 0.0132                 0.0488
 IR Inten    --      0.0508                 7.5483                 3.4958

                      4                      5                      6
                      A                      A                      A
 Frequencies --    180.7214               335.8450               431.5832
 Red. masses --      4.8160                 4.3650                 5.8979
 Frc consts  --      0.0927                 0.2901                 0.6473
 IR Inten    --      4.7820                21.8537                10.0602

                      7                      8                      9
                      A                      A                      A
 Frequencies --    497.1824               544.7099               634.3614
 Red. masses --      3.8872                 2.2058                 1.1447
 Frc consts  --      0.5661                 0.3856                 0.2714
 IR Inten    --     19.3732                21.9978               104.5776

                     10                     11                     12
                      A                      A                      A
 Frequencies --    739.8589               808.2983               833.2380
 Red. masses --      3.5211                 1.4931                 1.2992
 Frc consts  --      1.1356                 0.5747                 0.5314
 IR Inten    --     35.2636                 0.1770                97.6384

                     13                     14                     15
                      A                      A                      A
 Frequencies --    894.0778               925.4989              1048.5732
 Red. masses --      2.5428                 2.6814                 2.3241
 Frc consts  --      1.1976                 1.3532                 1.5056
 IR Inten    --      5.4670                12.3598                82.3804

                     16                     17                     18
                      A                      A                      A
 Frequencies --   1055.6929              1153.1964              1162.1747
 Red. masses --      1.2798                 1.6625                 1.0710
 Frc consts  --      0.8403                 1.3026                 0.8523
 IR Inten    --      1.5365               103.0822                48.9652

                     19                     20                     21
                      A                      A                      A
 Frequencies --   1226.8163              1276.2932              1311.2113
 Red. masses --      1.2640                 1.4315                 1.6001
 Frc consts  --      1.1209                 1.3739                 1.6208
 IR Inten    --     57.6766               141.8739               195.7337

                     22                     23                     24
                      A                      A                      A
 Frequencies --   1411.4738              1445.2879              1511.9921
 Red. masses --      1.5233                 1.2630                 2.2969
 Frc consts  --      1.7880                 1.5544                 3.0938
 IR Inten    --     28.4622                20.4946               184.0977

                     25                     26                     27
                      A                      A                      A
 Frequencies --   1698.4960              1725.9089              1746.7847
 Red. masses --      8.7937                 6.0731                 6.1936
 Frc consts  --     14.9469                10.6584                11.1345
 IR Inten    --    245.1180               129.7428                82.3485

                     28                     29                     30
                      A                      A                      A
 Frequencies --   3072.1044              3086.9282              3384.6647
 Red. masses --      1.0885                 1.0881                 1.0717
 Frc consts  --      6.0527                 6.1091                 7.2337
 IR Inten    --     31.0365                24.1555                 5.4599

                     31                     32                     33
                      A                      A                      A
 Frequencies --   3515.4934              3519.0150              3588.4523
 Red. masses --      1.0754                 1.0763                 1.0754
 Frc consts  --      7.8304                 7.8532                 8.1589
 IR Inten    --      6.3442                 7.3203                31.6624

 - Thermochemistry -
 -------------------
 Temperature   298.150 Kelvin.  Pressure   1.00000 Atm.
 Atom     1 has atomic number  7 and mass  14.00307

 Molecular mass:    98.05925 amu.
 Principal axes and moments of inertia in atomic units:
                           1         2         3
     Eigenvalues --   208.490171331.070871539.56104
           X            0.99997  -0.00824   0.00000
           Y            0.00824   0.99997   0.00000
           Z           -0.00000  -0.00000   1.00000
 This molecule is an asymmetric top.
 Rotational symmetry number  1.
 Rotational temperatures (Kelvin)      0.41543     0.06507     0.05626
 Rotational constants (GHZ):           8.65624     1.35586     1.17224
 Zero-point vibrational energy     269793.7 (Joules/Mol)
                                   64.48224 (Kcal/Mol)
 Warning -- explicit consideration of   8 degrees of freedom as
           vibrations may cause significant error
 Vibrational temperatures:    112.63   147.61   229.01   260.02   483.21
          (Kelvin)            620.95   715.33   783.72   912.70  1064.49
                             1162.96  1198.84  1286.38  1331.59  1508.66
                             1518.91  1659.19  1672.11  1765.11  1836.30
                             1886.54  2030.80  2079.45  2175.42  2443.76
                             2483.20  2513.23  4420.07  4441.40  4869.78
                             5058.01  5063.08  5162.98

 Zero-point correction=                           0.102759 (Hartree/Particle)
 Thermal correction to Energy=                    0.110045
 Thermal correction to Enthalpy=                  0.110989
 Thermal correction to Gibbs Free Energy=         0.070868
 Sum of electronic and zero-point Energies=           -336.816559
 Sum of electronic and thermal Energies=              -336.809274
 Sum of electronic and thermal Enthalpies=            -336.808330
 Sum of electronic and thermal Free Energies=         -336.848450

                     E (Thermal)             CV                S
                      KCal/Mol        Cal/Mol-Kelvin    Cal/Mol-Kelvin
 Total                   69.054             24.939             84.441
 Electronic               0.000              0.000              0.000
 Translational            0.889              2.981             39.660
 Rotational               0.889              2.981             27.549
 Vibrational             67.277             18.977             17.232
 Vibration     1          0.600              1.964              3.933
 Vibration     2          0.605              1.947              3.404
 Vibration     3          0.621              1.892              2.560
 Vibration     4          0.630              1.866              2.321
 Vibration     5          0.717              1.604              1.232
 Vibration     6          0.793              1.401              0.853
 Vibration     7          0.853              1.256              0.665
 Vibration     8          0.900              1.151              0.555

 Optimization completed.
    -- Stationary point found.
 Normal termination of Gaussian 16 at Mon May 31 17:18:32 2021.
