 Gaussian 16, Revision A.03,
 Gaussian 16:  ES64L-G16RevA.03 25-Dec-2016

 -----------------------------
 # opt freq b3lyp/6-31g(2df,p)
 -----------------------------

 -------------------
 Title Card Required
 -------------------
 Symbolic Z-matrix:
 Charge =  0 Multiplicity = 1

 SCF Done:  E(RB3LYP) =  -526.245083688     A.U. after   14 cycles
 SCF Done:  E(RB3LYP) =  -526.257804716     A.U. after   12 cycles
 SCF Done:  E(RB3LYP) =  -526.259397468     A.U. after   12 cycles
 SCF Done:  E(RB3LYP) =  -526.259957603     A.U. after   11 cycles
 SCF Done:  E(RB3LYP) =  -526.260249192     A.U. after   12 cycles
 SCF Done:  E(RB3LYP) =  -526.260341913     A.U. after   10 cycles
 SCF Done:  E(RB3LYP) =  -526.260434173     A.U. after   12 cycles
 SCF Done:  E(RB3LYP) =  -526.260600416     A.U. after   12 cycles
 SCF Done:  E(RB3LYP) =  -526.260704585     A.U. after   12 cycles
 SCF Done:  E(RB3LYP) =  -526.261141951     A.U. after   12 cycles
 SCF Done:  E(RB3LYP) =  -526.269175747     A.U. after   12 cycles
 SCF Done:  E(RB3LYP) =  -526.269208457     A.U. after   11 cycles
 SCF Done:  E(RB3LYP) =  -526.269222411     A.U. after   10 cycles
 SCF Done:  E(RB3LYP) =  -526.269229628     A.U. after   10 cycles
 SCF Done:  E(RB3LYP) =  -526.269231137     A.U. after    9 cycles
 SCF Done:  E(RB3LYP) =  -526.269231723     A.U. after    7 cycles
 SCF Done:  E(RB3LYP) =  -526.269232137     A.U. after    7 cycles
 SCF Done:  E(RB3LYP) =  -526.269232244     A.U. after    7 cycles
 SCF Done:  E(RB3LYP) =  -526.269232275     A.U. after    6 cycles
 Optimization completed.
    -- Stationary point found.
 Normal termination of Gaussian 16 at Tue Jun  1 11:29:53 2021.

 ----------------------------------------------------------------------
 #N Geom=AllCheck Guess=TCheck SCRF=Check GenChk RB3LYP/6-31G(2df,p) Fr
 eq
 ----------------------------------------------------------------------

 Structure from the checkpoint file:  "NdCNCNdCNCpdNpCN.chk"
 -------------------
 Title Card Required
 -------------------
 Charge =  0 Multiplicity = 1

                         Standard orientation:
 ---------------------------------------------------------------------
 Center     Atomic      Atomic             Coordinates (Angstroms)
 Number     Number       Type             X           Y           Z
 ---------------------------------------------------------------------
      1          7           0        4.300686    1.680036    0.308495
      2          6           0        3.590371    0.810932   -0.294170
      3          7           0        3.410605   -0.458383    0.195839
      4          6           0        2.301450   -1.283735   -0.215964
      5          7           0        1.074557   -0.982069    0.507767
      6          6           0        0.056252   -0.664201   -0.179286
      7          7           0       -1.144829   -0.360392    0.417733
      8          6           0       -2.338549    0.014261   -0.199092
      9          7           0       -2.573708    0.152668   -1.442172
     10          6           0       -3.455454    0.269572    0.813229
     11          7           0       -4.736419    0.670109    0.268372
     12          1           0        4.363461    2.531011   -0.245403
     13          1           0        3.092006    0.955186   -1.262936
     14          1           0        3.738502   -0.585297    1.144134
     15          1           0        2.563995   -2.329206   -0.019159
     16          1           0        2.183430   -1.171026   -1.306474
     17          1           0        0.045804   -0.609927   -1.274453
     18          1           0       -1.133046   -0.415278    1.427420
     19          1           0       -1.766966   -0.039877   -2.033891
     20          1           0       -3.107042    1.038074    1.517410
     21          1           0       -3.587196   -0.643916    1.410140
     22          1           0       -5.033228   -0.031751   -0.404849
     23          1           0       -4.600388    1.507242   -0.292470
 ---------------------------------------------------------------------

 SCF Done:  E(RB3LYP) =  -526.269232275     A.U. after    2 cycles

 The electronic state is 1-A.
 Alpha  occ. eigenvalues --  -14.38266 -14.34397 -14.32436 -14.31249 -14.31066
 Alpha  occ. eigenvalues --  -14.28638 -10.27428 -10.27075 -10.25468 -10.24581
 Alpha  occ. eigenvalues --  -10.22582  -0.99762  -0.95959  -0.92195  -0.88861
 Alpha  occ. eigenvalues --   -0.86715  -0.84742  -0.72994  -0.68762  -0.62455
 Alpha  occ. eigenvalues --   -0.61187  -0.59761  -0.54744  -0.51713  -0.51013
 Alpha  occ. eigenvalues --   -0.50220  -0.47765  -0.46610  -0.44531  -0.43758
 Alpha  occ. eigenvalues --   -0.42578  -0.41041  -0.40398  -0.37785  -0.35414
 Alpha  occ. eigenvalues --   -0.32156  -0.28878  -0.27041  -0.25714  -0.25046
 Alpha  occ. eigenvalues --   -0.24925  -0.22959
 Alpha virt. eigenvalues --   -0.01877   0.03478   0.04790   0.06326   0.07735
 Alpha virt. eigenvalues --    0.09761   0.10348   0.10780   0.11810   0.14458
 Alpha virt. eigenvalues --    0.14536   0.15774   0.16792   0.18107   0.18884

 Mulliken charges:
               1
     1  N   -0.472253
     2  C    0.099078
     3  N   -0.222562
     4  C   -0.137082
     5  N   -0.242793
     6  C    0.117065
     7  N   -0.342058
     8  C    0.362437
     9  N   -0.512797
    10  C   -0.235165
    11  N   -0.485341
    12  H    0.219217
    13  H    0.080049
    14  H    0.250739
    15  H    0.119099
    16  H    0.098294
    17  H    0.098574
    18  H    0.262166
    19  H    0.213830
    20  H    0.127406
    21  H    0.126533
    22  H    0.237880
    23  H    0.237683
 Sum of Mulliken charges =  -0.00000

 Dipole moment (field-independent basis, Debye):
    X=             -0.6511    Y=             -1.5170    Z=             -1.2444  Tot=              2.0673
 Quadrupole moment (field-independent basis, Debye-Ang):
   XX=            -88.6375   YY=            -63.7058   ZZ=            -64.3818
   XY=             -2.5120   XZ=             -6.5829   YZ=             -2.8929

  Exact polarizability: 138.769  -0.400  84.070   9.079  -2.455  87.562
 Approx polarizability: 167.898  -2.325 128.951  24.584  -5.536 147.254

                      1                      2                      3
                      A                      A                      A
 Frequencies --     27.3538                29.4352                57.4763
 Red. masses --      4.2221                 3.9397                 2.4967
 Frc consts  --      0.0019                 0.0020                 0.0049
 IR Inten    --      0.2039                 0.4968                 0.9204

                      4                      5                      6
                      A                      A                      A
 Frequencies --     81.6609                99.7617               138.7913
 Red. masses --      3.2460                 3.1105                 2.9762
 Frc consts  --      0.0128                 0.0182                 0.0338
 IR Inten    --      7.1406                 5.4037                 8.5890

                      7                      8                      9
                      A                      A                      A
 Frequencies --    146.7689               204.4761               245.7669
 Red. masses --      3.0634                 1.3527                 2.7840
 Frc consts  --      0.0389                 0.0333                 0.0991
 IR Inten    --      3.0009                32.6919                 6.3929

                     10                     11                     12
                      A                      A                      A
 Frequencies --    267.5024               314.4366               336.5266
 Red. masses --      3.7201                 3.9990                 3.3259
 Frc consts  --      0.1568                 0.2330                 0.2219
 IR Inten    --      8.8895                 8.4381                24.7749

                     13                     14                     15
                      A                      A                      A
 Frequencies --    381.2945               489.4130               526.1373
 Red. masses --      2.8549                 4.0888                 2.0316
 Frc consts  --      0.2445                 0.5770                 0.3314
 IR Inten    --      3.3176                 7.7985                 0.4246

                     16                     17                     18
                      A                      A                      A
 Frequencies --    548.5293               620.5056               630.5614
 Red. masses --      2.9980                 2.3142                 1.3271
 Frc consts  --      0.5315                 0.5250                 0.3109
 IR Inten    --     10.2048               104.4236                95.3083

                     19                     20                     21
                      A                      A                      A
 Frequencies --    639.1726               697.2272               803.5915
 Red. masses --      1.6767                 3.5652                 1.3946
 Frc consts  --      0.4036                 1.0211                 0.5306
 IR Inten    --    101.8998                20.9141                15.8602

                     22                     23                     24
                      A                      A                      A
 Frequencies --    856.4132               881.7922               924.0486
 Red. masses --      1.4794                 2.5471                 1.3708
 Frc consts  --      0.6393                 1.1669                 0.6896
 IR Inten    --     52.9690                40.4476                 3.5895

                     25                     26                     27
                      A                      A                      A
 Frequencies --    958.6099               967.8968              1008.0458
 Red. masses --      1.8393                 1.8990                 1.6164
 Frc consts  --      0.9958                 1.0481                 0.9677
 IR Inten    --    143.8037               141.6884                15.1966

                     28                     29                     30
                      A                      A                      A
 Frequencies --   1028.9514              1056.3616              1088.0822
 Red. masses --      3.6912                 1.3428                 2.5429
 Frc consts  --      2.3025                 0.8828                 1.7738
 IR Inten    --     79.2275                 2.5206                10.4806

                     31                     32                     33
                      A                      A                      A
 Frequencies --   1118.3384              1152.2770              1179.9947
 Red. masses --      1.7347                 2.6303                 2.4520
 Frc consts  --      1.2783                 2.0576                 2.0116
 IR Inten    --     41.8421                31.8385               249.6733

                     34                     35                     36
                      A                      A                      A
 Frequencies --   1192.7794              1248.7478              1265.4042
 Red. masses --      1.1919                 1.4950                 1.3541
 Frc consts  --      0.9991                 1.3735                 1.2775
 IR Inten    --      0.3885                73.3424                57.8515

                     37                     38                     39
                      A                      A                      A
 Frequencies --   1289.0765              1350.6318              1374.6921
 Red. masses --      2.0568                 1.3943                 1.3074
 Frc consts  --      2.0137                 1.4985                 1.4557
 IR Inten    --    347.3464                30.8650                 3.4962

                     40                     41                     42
                      A                      A                      A
 Frequencies --   1389.0346              1395.9241              1401.1976
 Red. masses --      1.3891                 1.2961                 1.1940
 Frc consts  --      1.5791                 1.4881                 1.3811
 IR Inten    --      4.4283                26.1493                 0.7240

                     43                     44                     45
                      A                      A                      A
 Frequencies --   1422.2872              1470.5269              1471.5747
 Red. masses --      1.4509                 1.5341                 1.0981
 Frc consts  --      1.7293                 1.9546                 1.4010
 IR Inten    --    111.6168                21.9842                 5.1770

                     46                     47                     48
                      A                      A                      A
 Frequencies --   1489.7003              1514.4194              1681.0244
 Red. masses --      1.1872                 2.1419                 1.0886
 Frc consts  --      1.5523                 2.8943                 1.8125
 IR Inten    --     13.9341               171.8013                12.5917

                     49                     50                     51
                      A                      A                      A
 Frequencies --   1718.5126              1738.3797              1758.9033
 Red. masses --      6.8751                 5.2644                 5.7369
 Frc consts  --     11.9628                 9.3731                10.4571
 IR Inten    --    493.8036               251.2317               206.4702

                     52                     53                     54
                      A                      A                      A
 Frequencies --   2968.3761              3009.4558              3023.0241
 Red. masses --      1.0681                 1.0592                 1.0859
 Frc consts  --      5.5447                 5.6518                 5.8468
 IR Inten    --     47.6126                29.8134                46.7401

                     55                     56                     57
                      A                      A                      A
 Frequencies --   3042.3239              3046.1646              3055.5806
 Red. masses --      1.1019                 1.0857                 1.0940
 Frc consts  --      6.0089                 5.9354                 6.0183
 IR Inten    --     16.1033                32.0986                29.7120

                     58                     59                     60
                      A                      A                      A
 Frequencies --   3492.2431              3493.8524              3514.3340
 Red. masses --      1.0742                 1.0507                 1.0760
 Frc consts  --      7.7190                 7.5569                 7.8296
 IR Inten    --     11.1458                 1.0264                 1.5828

                     61                     62                     63
                      A                      A                      A
 Frequencies --   3557.1139              3592.3489              3592.6781
 Red. masses --      1.0899                 1.0750                 1.0752
 Frc consts  --      8.1250                 8.1734                 8.1764
 IR Inten    --      2.4947                 6.8915                44.3533

 - Thermochemistry -
 -------------------
 Temperature   298.150 Kelvin.  Pressure   1.00000 Atm.
 Atom     1 has atomic number  7 and mass  14.00307

 Molecular mass:   156.11234 amu.
 Principal axes and moments of inertia in atomic units:
                           1         2         3
     Eigenvalues --   652.365875300.772645485.08454
           X            0.99998  -0.00302  -0.00589
           Y            0.00298   0.99997  -0.00760
           Z            0.00591   0.00759   0.99995
 This molecule is an asymmetric top.
 Rotational symmetry number  1.
 Warning -- assumption of classical behavior for rotation
           may cause significant error
 Rotational temperatures (Kelvin)      0.13277     0.01634     0.01579
 Rotational constants (GHZ):           2.76646     0.34047     0.32903
 Zero-point vibrational energy     508816.7 (Joules/Mol)
                                  121.61012 (Kcal/Mol)
 Warning -- explicit consideration of  17 degrees of freedom as
           vibrations may cause significant error
 Vibrational temperatures:     39.36    42.35    82.70   117.49   143.53
          (Kelvin)            199.69   211.17   294.20   353.60   384.88
                              452.40   484.19   548.60   704.16   756.99
                              789.21   892.77   907.24   919.63  1003.15
                             1156.19  1232.19  1268.70  1329.50  1379.23
                             1392.59  1450.35  1480.43  1519.87  1565.51
                             1609.04  1657.87  1697.75  1716.14  1796.67
                             1820.63  1854.69  1943.26  1977.88  1998.51
                             2008.42  2016.01  2046.35  2115.76  2117.27
                             2143.35  2178.91  2418.62  2472.56  2501.14
                             2530.67  4270.83  4329.94  4349.46  4377.23
                             4382.75  4396.30  5024.56  5026.87  5056.34
                             5117.89  5168.59  5169.06

 Zero-point correction=                           0.193798 (Hartree/Particle)
 Thermal correction to Energy=                    0.206469
 Thermal correction to Enthalpy=                  0.207413
 Thermal correction to Gibbs Free Energy=         0.152448
 Sum of electronic and zero-point Energies=           -526.075434
 Sum of electronic and thermal Energies=              -526.062763
 Sum of electronic and thermal Enthalpies=            -526.061819
 Sum of electronic and thermal Free Energies=         -526.116785

                     E (Thermal)             CV                S
                      KCal/Mol        Cal/Mol-Kelvin    Cal/Mol-Kelvin
 Total                  129.561             43.981            115.685
 Electronic               0.000              0.000              0.000
 Translational            0.889              2.981             41.046
 Rotational               0.889              2.981             31.317
 Vibrational            127.784             38.019             43.322
 Vibration     1          0.593              1.984              6.013
 Vibration     2          0.593              1.984              5.867
 Vibration     3          0.596              1.975              4.542
 Vibration     4          0.600              1.962              3.851
 Vibration     5          0.604              1.949              3.459
 Vibration     6          0.614              1.915              2.820
 Vibration     7          0.617              1.906              2.714
 Vibration     8          0.640              1.834              2.092
 Vibration     9          0.660              1.770              1.761
 Vibration    10          0.673              1.733              1.612
 Vibration    11          0.702              1.646              1.339
 Vibration    12          0.717              1.603              1.229
 Vibration    13          0.751              1.510              1.034
 Vibration    14          0.845              1.274              0.685
 Vibration    15          0.881              1.192              0.596
 Vibration    16          0.904              1.143              0.547
 Vibration    17          0.981              0.989              0.416

 Optimization completed.
    -- Stationary point found.
 Normal termination of Gaussian 16 at Tue Jun  1 12:08:38 2021.
