 Gaussian 16, Revision A.03,
 Gaussian 16:  ES64L-G16RevA.03 25-Dec-2016

 -----------------------------
 # opt freq b3lyp/6-31g(2df,p)
 -----------------------------

 -------------------
 Title Card Required
 -------------------
 Symbolic Z-matrix:
 Charge =  0 Multiplicity = 1

 SCF Done:  E(RB3LYP) =  -480.484942732     A.U. after   14 cycles
 SCF Done:  E(RB3LYP) =  -480.490532449     A.U. after   13 cycles
 SCF Done:  E(RB3LYP) =  -480.491306225     A.U. after   13 cycles
 SCF Done:  E(RB3LYP) =  -480.491093905     A.U. after   14 cycles
 SCF Done:  E(RB3LYP) =  -480.493091104     A.U. after   13 cycles
 SCF Done:  E(RB3LYP) =  -480.495253331     A.U. after   14 cycles
 SCF Done:  E(RB3LYP) =  -480.496706300     A.U. after   13 cycles
 SCF Done:  E(RB3LYP) =  -480.497894445     A.U. after   13 cycles
 SCF Done:  E(RB3LYP) =  -480.498462754     A.U. after   14 cycles
 SCF Done:  E(RB3LYP) =  -480.498977105     A.U. after   14 cycles
 SCF Done:  E(RB3LYP) =  -480.508423401     A.U. after   11 cycles
 SCF Done:  E(RB3LYP) =  -480.508423516     A.U. after   11 cycles
 SCF Done:  E(RB3LYP) =  -480.508423837     A.U. after   12 cycles
 SCF Done:  E(RB3LYP) =  -480.508424373     A.U. after   12 cycles
 SCF Done:  E(RB3LYP) =  -480.508424992     A.U. after   10 cycles
 SCF Done:  E(RB3LYP) =  -480.508425535     A.U. after   11 cycles
 SCF Done:  E(RB3LYP) =  -480.508425501     A.U. after    9 cycles
 SCF Done:  E(RB3LYP) =  -480.508425559     A.U. after   10 cycles
 SCF Done:  E(RB3LYP) =  -480.508425543     A.U. after   10 cycles
 Optimization completed on the basis of negligible forces.
    -- Stationary point found.
 Normal termination of Gaussian 16 at Tue Jun  1 04:10:51 2021.

 ----------------------------------------------------------------------
 #N Geom=AllCheck Guess=TCheck SCRF=Check GenChk RB3LYP/6-31G(2df,p) Fr
 eq
 ----------------------------------------------------------------------

 Structure from the checkpoint file:  "NdCpCCdOpCNCF.chk"
 -------------------
 Title Card Required
 -------------------
 Charge =  0 Multiplicity = 1

                         Standard orientation:
 ---------------------------------------------------------------------
 Center     Atomic      Atomic             Coordinates (Angstroms)
 Number     Number       Type             X           Y           Z
 ---------------------------------------------------------------------
      1          7           0        0.371831    2.020545    0.762477
      2          6           0        0.333115    0.897006    0.169824
      3          6           0        1.167059   -0.317436    0.546923
      4          6           0        2.244156   -0.627013   -0.477599
      5          8           0        3.412817   -0.735627   -0.215588
      6          6           0       -0.662893    0.768153   -0.985014
      7          7           0       -2.036698    0.529674   -0.540566
      8          6           0       -2.421782   -0.783492   -0.223530
      9          9           0       -1.735327   -1.343564    0.880786
     10          1           0        1.032772    2.008883    1.543337
     11          1           0        0.494489   -1.183143    0.604606
     12          1           0        1.649468   -0.178801    1.517713
     13          1           0        1.879018   -0.759465   -1.521527
     14          1           0       -0.386495   -0.042590   -1.667469
     15          1           0       -0.640266    1.706717   -1.545506
     16          1           0       -2.309902    1.205383    0.163601
     17          1           0       -2.223674   -1.448917   -1.070867
     18          1           0       -3.483862   -0.805816    0.036751
 ---------------------------------------------------------------------

 SCF Done:  E(RB3LYP) =  -480.508425543     A.U. after    1 cycles

 The electronic state is 1-A.
 Alpha  occ. eigenvalues --  -24.67093 -19.14905 -14.34464 -14.32393 -10.28751
 Alpha  occ. eigenvalues --  -10.28412 -10.24782 -10.23034 -10.20585  -1.18001
 Alpha  occ. eigenvalues --   -1.05656  -0.94053  -0.90806  -0.77432  -0.73296
 Alpha  occ. eigenvalues --   -0.65744  -0.59866  -0.57419  -0.53315  -0.50456
 Alpha  occ. eigenvalues --   -0.49966  -0.48475  -0.47385  -0.45143  -0.44287
 Alpha  occ. eigenvalues --   -0.43407  -0.40298  -0.39091  -0.38023  -0.36731
 Alpha  occ. eigenvalues --   -0.34418  -0.32270  -0.28277  -0.26257  -0.25009
 Alpha virt. eigenvalues --   -0.03819  -0.00403   0.07445   0.08984   0.10258
 Alpha virt. eigenvalues --    0.11744   0.12561   0.13996   0.15258   0.16378
 Alpha virt. eigenvalues --    0.16526   0.17630   0.18928   0.21569   0.25765

 Mulliken charges:
               1
     1  N   -0.459810
     2  C    0.303285
     3  C   -0.372265
     4  C    0.160842
     5  O   -0.230213
     6  C   -0.209264
     7  N   -0.262245
     8  C   -0.051486
     9  F   -0.178193
    10  H    0.224127
    11  H    0.154348
    12  H    0.125407
    13  H    0.079067
    14  H    0.107405
    15  H    0.134059
    16  H    0.244255
    17  H    0.110716
    18  H    0.119966
 Sum of Mulliken charges =  -0.00000

 Dipole moment (field-independent basis, Debye):
    X=             -2.3986    Y=             -0.5242    Z=             -0.7015  Tot=              2.5535
 Quadrupole moment (field-independent basis, Debye-Ang):
   XX=            -60.3781   YY=            -57.1022   ZZ=            -50.5419
   XY=              2.5615   XZ=              1.4233   YZ=              2.4969

  Exact polarizability:  82.203  -1.177  69.218   3.325   6.262  63.346
 Approx polarizability: 112.272  -3.676 107.507   5.389  10.989  95.751

                      1                      2                      3
                      A                      A                      A
 Frequencies --     11.8073                53.6784                73.8460
 Red. masses --      6.3963                 5.7724                 3.2771
 Frc consts  --      0.0005                 0.0098                 0.0105
 IR Inten    --      1.3173                 1.9771                 4.5800

                      4                      5                      6
                      A                      A                      A
 Frequencies --     92.3266               141.1650               209.5415
 Red. masses --      2.8750                 6.5644                 3.3365
 Frc consts  --      0.0144                 0.0771                 0.0863
 IR Inten    --      4.5335                 6.4021                 5.8493

                      7                      8                      9
                      A                      A                      A
 Frequencies --    243.9321               349.5961               396.4179
 Red. masses --      4.0535                 2.5192                 2.2217
 Frc consts  --      0.1421                 0.1814                 0.2057
 IR Inten    --      2.1559                 7.5737                10.9861

                     10                     11                     12
                      A                      A                      A
 Frequencies --    459.8111               517.8174               534.6126
 Red. masses --      2.4967                 2.8697                 2.8565
 Frc consts  --      0.3110                 0.4534                 0.4810
 IR Inten    --      8.7011                16.0810                18.5356

                     13                     14                     15
                      A                      A                      A
 Frequencies --    679.2901               699.1662               764.5438
 Red. masses --      2.3553                 2.3790                 2.0291
 Frc consts  --      0.6403                 0.6852                 0.6988
 IR Inten    --     49.9348                78.8859                12.2991

                     16                     17                     18
                      A                      A                      A
 Frequencies --    855.6384               903.6195               917.5911
 Red. masses --      2.0763                 1.4727                 7.7548
 Frc consts  --      0.8956                 0.7085                 3.8470
 IR Inten    --      1.4054                42.4887               139.1217

                     19                     20                     21
                      A                      A                      A
 Frequencies --    950.8330               994.2602              1039.4289
 Red. masses --      1.7746                 2.0650                 2.4413
 Frc consts  --      0.9453                 1.2027                 1.5541
 IR Inten    --      4.5020                 7.7296                32.0454

                     22                     23                     24
                      A                      A                      A
 Frequencies --   1059.1456              1098.4200              1156.8622
 Red. masses --      1.8616                 2.0746                 1.5659
 Frc consts  --      1.2304                 1.4747                 1.2347
 IR Inten    --     20.0558                46.3802                21.2137

                     25                     26                     27
                      A                      A                      A
 Frequencies --   1194.3615              1209.0130              1263.7023
 Red. masses --      1.2567                 2.9140                 1.2568
 Frc consts  --      1.0562                 2.5096                 1.1825
 IR Inten    --     27.7128                90.8643                11.8973

                     28                     29                     30
                      A                      A                      A
 Frequencies --   1275.5071              1330.7026              1355.9925
 Red. masses --      1.3817                 1.3846                 1.2874
 Frc consts  --      1.3244                 1.4446                 1.3947
 IR Inten    --     12.3176                33.5456                36.1196

                     31                     32                     33
                      A                      A                      A
 Frequencies --   1388.6363              1421.7880              1433.8941
 Red. masses --      1.5675                 1.1449                 1.1789
 Frc consts  --      1.7809                 1.3636                 1.4281
 IR Inten    --     51.0934                 6.7258                 8.3060

                     34                     35                     36
                      A                      A                      A
 Frequencies --   1463.4242              1473.3071              1502.0341
 Red. masses --      1.0907                 1.0792                 1.1292
 Frc consts  --      1.3763                 1.3802                 1.5011
 IR Inten    --      9.0734                 0.3480                 0.5937

                     37                     38                     39
                      A                      A                      A
 Frequencies --   1517.9377              1723.3866              1833.4060
 Red. masses --      1.3012                 8.3297                10.1216
 Frc consts  --      1.7664                14.5763                20.0454
 IR Inten    --     31.7109                65.8399               198.7598

                     40                     41                     42
                      A                      A                      A
 Frequencies --   2868.6011              3037.9932              3044.8639
 Red. masses --      1.0820                 1.0595                 1.0566
 Frc consts  --      5.2460                 5.7614                 5.7714
 IR Inten    --     98.2501                11.9845                33.6311

                     43                     44                     45
                      A                      A                      A
 Frequencies --   3050.2501              3101.1461              3106.1091
 Red. masses --      1.0587                 1.1057                 1.1107
 Frc consts  --      5.8038                 6.2651                 6.3135
 IR Inten    --     33.7751                13.7483                31.2194

                     46                     47                     48
                      A                      A                      A
 Frequencies --   3112.1623              3435.3468              3556.5300
 Red. masses --      1.1018                 1.0745                 1.0742
 Frc consts  --      6.2875                 7.4716                 8.0057
 IR Inten    --      8.6494                 1.2150                 8.9692

 - Thermochemistry -
 -------------------
 Temperature   298.150 Kelvin.  Pressure   1.00000 Atm.
 Atom     1 has atomic number  7 and mass  14.00307

 Molecular mass:   132.06989 amu.
 Principal axes and moments of inertia in atomic units:
                           1         2         3
     Eigenvalues --   741.360791957.953752269.76176
           X            0.99988  -0.00210   0.01530
           Y            0.00148   0.99918   0.04052
           Z           -0.01537  -0.04049   0.99906
 This molecule is an asymmetric top.
 Rotational symmetry number  1.
 Warning -- assumption of classical behavior for rotation
           may cause significant error
 Rotational temperatures (Kelvin)      0.11683     0.04424     0.03816
 Rotational constants (GHZ):           2.43436     0.92175     0.79512
 Zero-point vibrational energy     382227.5 (Joules/Mol)
                                   91.35456 (Kcal/Mol)
 Warning -- explicit consideration of  12 degrees of freedom as
           vibrations may cause significant error
 Vibrational temperatures:     16.99    77.23   106.25   132.84   203.11
          (Kelvin)            301.48   350.96   502.99   570.36   661.57
                              745.02   769.19   977.35  1005.94  1100.01
                             1231.07  1300.11  1320.21  1368.04  1430.52
                             1495.51  1523.87  1580.38  1664.47  1718.42
                             1739.50  1818.19  1835.17  1914.58  1950.97
                             1997.94  2045.64  2063.05  2105.54  2119.76
                             2161.09  2183.97  2479.57  2637.86  4127.28
                             4370.99  4380.88  4388.63  4461.86  4469.00
                             4477.71  4942.70  5117.05

 Zero-point correction=                           0.145583 (Hartree/Particle)
 Thermal correction to Energy=                    0.155538
 Thermal correction to Enthalpy=                  0.156482
 Thermal correction to Gibbs Free Energy=         0.107573
 Sum of electronic and zero-point Energies=           -480.362843
 Sum of electronic and thermal Energies=              -480.352888
 Sum of electronic and thermal Enthalpies=            -480.351944
 Sum of electronic and thermal Free Energies=         -480.400853

                     E (Thermal)             CV                S
                      KCal/Mol        Cal/Mol-Kelvin    Cal/Mol-Kelvin
 Total                   97.601             33.730            102.938
 Electronic               0.000              0.000              0.000
 Translational            0.889              2.981             40.547
 Rotational               0.889              2.981             29.578
 Vibrational             95.824             27.768             32.813
 Vibration     1          0.593              1.987              7.681
 Vibration     2          0.596              1.976              4.677
 Vibration     3          0.599              1.966              4.048
 Vibration     4          0.602              1.955              3.610
 Vibration     5          0.615              1.912              2.788
 Vibration     6          0.642              1.826              2.048
 Vibration     7          0.659              1.773              1.774
 Vibration     8          0.727              1.576              1.168
 Vibration     9          0.763              1.478              0.976
 Vibration    10          0.818              1.339              0.767
 Vibration    11          0.873              1.211              0.615
 Vibration    12          0.890              1.173              0.577

 Optimization completed on the basis of negligible forces.
    -- Stationary point found.
 Normal termination of Gaussian 16 at Tue Jun  1 04:41:31 2021.
