 Gaussian 16, Revision A.03,
 Gaussian 16:  ES64L-G16RevA.03 25-Dec-2016

 -----------------------------
 # opt freq b3lyp/6-31g(2df,p)
 -----------------------------

 -------------------
 Title Card Required
 -------------------
 Symbolic Z-matrix:
 Charge =  0 Multiplicity = 1

 SCF Done:  E(RB3LYP) =  -465.979114137     A.U. after   13 cycles
 SCF Done:  E(RB3LYP) =  -465.998941259     A.U. after   12 cycles
 SCF Done:  E(RB3LYP) =  -466.007940737     A.U. after   12 cycles
 SCF Done:  E(RB3LYP) =  -466.014417518     A.U. after   13 cycles
 SCF Done:  E(RB3LYP) =  -466.017197997     A.U. after   11 cycles
 SCF Done:  E(RB3LYP) =  -466.019067243     A.U. after   12 cycles
 SCF Done:  E(RB3LYP) =  -466.019729163     A.U. after   11 cycles
 SCF Done:  E(RB3LYP) =  -466.020624613     A.U. after   11 cycles
 SCF Done:  E(RB3LYP) =  -466.021087575     A.U. after   12 cycles
 SCF Done:  E(RB3LYP) =  -466.021400164     A.U. after   10 cycles
 SCF Done:  E(RB3LYP) =  -466.021526625     A.U. after   10 cycles
 SCF Done:  E(RB3LYP) =  -466.021551544     A.U. after    9 cycles
 SCF Done:  E(RB3LYP) =  -466.021561339     A.U. after    8 cycles
 SCF Done:  E(RB3LYP) =  -466.021564806     A.U. after    8 cycles
 SCF Done:  E(RB3LYP) =  -466.021565418     A.U. after    7 cycles
 SCF Done:  E(RB3LYP) =  -466.021565539     A.U. after    7 cycles
 SCF Done:  E(RB3LYP) =  -466.021565634     A.U. after    7 cycles
 Optimization completed.
    -- Stationary point found.
 Normal termination of Gaussian 16 at Mon May 31 12:52:14 2021.

 ----------------------------------------------------------------------
 #N Geom=AllCheck Guess=TCheck SCRF=Check GenChk RB3LYP/6-31G(2df,p) Fr
 eq
 ----------------------------------------------------------------------

 Structure from the checkpoint file:  "NdCpNpNNNpNpCN.chk"
 -------------------
 Title Card Required
 -------------------
 Charge =  0 Multiplicity = 1

                         Standard orientation:
 ---------------------------------------------------------------------
 Center     Atomic      Atomic             Coordinates (Angstroms)
 Number     Number       Type             X           Y           Z
 ---------------------------------------------------------------------
      1          7           0       -2.854187   -0.677995    0.887329
      2          6           0       -2.123955    0.012336    0.093820
      3          7           0       -2.237144    0.167026   -1.276083
      4          7           0       -1.128853    0.818570    0.670246
      5          7           0        0.046178    1.015363   -0.071552
      6          7           0        1.060134    0.032442    0.343789
      7          7           0        0.701036   -1.205953   -0.339979
      8          6           0        2.329681    0.490424   -0.230856
      9          7           0        3.366763   -0.453796    0.142957
     10          1           0       -3.615736   -1.127023    0.381879
     11          1           0       -2.672049   -0.618228   -1.736021
     12          1           0       -1.358812    0.438930   -1.702276
     13          1           0       -0.977202    0.557544    1.641716
     14          1           0        0.424679    1.909160    0.237816
     15          1           0        0.133197   -1.719064    0.332988
     16          1           0        1.586359   -1.714769   -0.372867
     17          1           0        2.488167    1.516010    0.139853
     18          1           0        2.274214    0.525403   -1.330652
     19          1           0        3.595373   -0.363559    1.127381
     20          1           0        4.209961   -0.290572   -0.394543
 ---------------------------------------------------------------------

 SCF Done:  E(RB3LYP) =  -466.021565634     A.U. after    1 cycles

 The electronic state is 1-A.
 Alpha  occ. eigenvalues --  -14.38001 -14.37507 -14.35065 -14.33286 -14.33125
 Alpha  occ. eigenvalues --  -14.32057 -14.26299 -10.25817 -10.24603  -1.03277
 Alpha  occ. eigenvalues --   -0.96096  -0.90914  -0.88478  -0.83414  -0.80180
 Alpha  occ. eigenvalues --   -0.72040  -0.62947  -0.58116  -0.53932  -0.53456
 Alpha  occ. eigenvalues --   -0.50843  -0.50255  -0.47060  -0.45599  -0.43903
 Alpha  occ. eigenvalues --   -0.43316  -0.42006  -0.39799  -0.36904  -0.34698
 Alpha  occ. eigenvalues --   -0.28067  -0.26365  -0.26103  -0.24163  -0.21530
 Alpha  occ. eigenvalues --   -0.20108
 Alpha virt. eigenvalues --    0.06447   0.06774   0.07983   0.09871   0.11674
 Alpha virt. eigenvalues --    0.12744   0.13747   0.14483   0.15036   0.16392
 Alpha virt. eigenvalues --    0.17423   0.18156   0.18774   0.20509   0.21601

 Mulliken charges:
               1
     1  N   -0.561295
     2  C    0.405697
     3  N   -0.528937
     4  N   -0.259050
     5  N   -0.237772
     6  N   -0.120174
     7  N   -0.456519
     8  C   -0.080217
     9  N   -0.507284
    10  H    0.198713
    11  H    0.242349
    12  H    0.256365
    13  H    0.232927
    14  H    0.239781
    15  H    0.252236
    16  H    0.248727
    17  H    0.088542
    18  H    0.107306
    19  H    0.239058
    20  H    0.239549
 Sum of Mulliken charges =  -0.00000

 Dipole moment (field-independent basis, Debye):
    X=              4.4529    Y=              0.3928    Z=             -1.1239  Tot=              4.6093
 Quadrupole moment (field-independent basis, Debye-Ang):
   XX=            -48.2679   YY=            -52.4881   ZZ=            -54.5037
   XY=              5.5529   XZ=              7.0058   YZ=              2.7220

  Exact polarizability:  97.797   8.860  66.368  -3.464  -1.625  66.551
 Approx polarizability: 119.577  14.457 104.245  -7.996  -5.560 105.570

                      1                      2                      3
                      A                      A                      A
 Frequencies --     56.3081                70.3615                95.4647
 Red. masses --      3.9410                 4.8208                 3.6402
 Frc consts  --      0.0074                 0.0141                 0.0195
 IR Inten    --      1.0646                 4.0916                 8.5562

                      4                      5                      6
                      A                      A                      A
 Frequencies --    158.3016               221.1376               240.5001
 Red. masses --      2.5959                 1.1330                 3.7607
 Frc consts  --      0.0383                 0.0326                 0.1282
 IR Inten    --      4.4807                11.3119                 1.1626

                      7                      8                      9
                      A                      A                      A
 Frequencies --    292.6449               328.4257               355.7489
 Red. masses --      2.9290                 1.2919                 2.2133
 Frc consts  --      0.1478                 0.0821                 0.1650
 IR Inten    --      7.7770               111.5887                 3.8912

                     10                     11                     12
                      A                      A                      A
 Frequencies --    394.4858               425.4996               512.3740
 Red. masses --      1.3901                 2.9023                 2.8278
 Frc consts  --      0.1275                 0.3096                 0.4374
 IR Inten    --     36.6059                 3.1257                17.9129

                     13                     14                     15
                      A                      A                      A
 Frequencies --    533.9647               576.9441               600.9882
 Red. masses --      3.0375                 2.4216                 2.5044
 Frc consts  --      0.5103                 0.4749                 0.5330
 IR Inten    --     22.5144                 1.6573                52.1733

                     16                     17                     18
                      A                      A                      A
 Frequencies --    676.0160               693.2321               777.4078
 Red. masses --      1.6296                 1.9713                 4.3719
 Frc consts  --      0.4388                 0.5582                 1.5567
 IR Inten    --    158.1684               104.8150               143.8807

                     19                     20                     21
                      A                      A                      A
 Frequencies --    795.0556               822.0205               869.6210
 Red. masses --      1.2296                 1.7326                 2.5069
 Frc consts  --      0.4579                 0.6898                 1.1170
 IR Inten    --     11.4157                72.3864                68.5732

                     22                     23                     24
                      A                      A                      A
 Frequencies --    891.7873               947.3759               989.2715
 Red. masses --      2.7615                 3.0441                 1.8972
 Frc consts  --      1.2940                 1.6097                 1.0939
 IR Inten    --     18.5627                28.5885                12.2536

                     25                     26                     27
                      A                      A                      A
 Frequencies --   1023.0783              1094.5037              1116.4124
 Red. masses --      1.7774                 2.7671                 2.2482
 Frc consts  --      1.0961                 1.9530                 1.6510
 IR Inten    --     39.5567                17.8944                41.7657

                     28                     29                     30
                      A                      A                      A
 Frequencies --   1138.0893              1162.7200              1178.5119
 Red. masses --      1.4899                 1.5639                 1.5532
 Frc consts  --      1.1370                 1.2457                 1.2710
 IR Inten    --     72.9914                 0.9738                54.2873

                     31                     32                     33
                      A                      A                      A
 Frequencies --   1223.2014              1226.5595              1339.6044
 Red. masses --      2.0656                 1.3246                 1.2487
 Frc consts  --      1.8209                 1.1741                 1.3202
 IR Inten    --     94.7556                 1.9431                 5.1183

                     34                     35                     36
                      A                      A                      A
 Frequencies --   1387.5132              1426.0714              1441.8343
 Red. masses --      1.2724                 1.3637                 1.3458
 Frc consts  --      1.4433                 1.6341                 1.6484
 IR Inten    --      9.1022                23.3670                21.6445

                     37                     38                     39
                      A                      A                      A
 Frequencies --   1453.9813              1508.2434              1535.8068
 Red. masses --      1.9711                 1.0939                 1.3629
 Frc consts  --      2.4552                 1.4661                 1.8940
 IR Inten    --     46.9016                 1.3432                32.3120

                     40                     41                     42
                      A                      A                      A
 Frequencies --   1630.5607              1644.3911              1669.1913
 Red. masses --      1.2093                 1.0986                 1.0664
 Frc consts  --      1.8943                 1.7503                 1.7507
 IR Inten    --    107.8861                28.9160                42.2563

                     43                     44                     45
                      A                      A                      A
 Frequencies --   1737.3224              2957.8895              2999.8794
 Red. masses --      5.4345                 1.0563                 1.1042
 Frc consts  --      9.6643                 5.4451                 5.8546
 IR Inten    --    298.4264                66.6108                47.5842

                     46                     47                     48
                      A                      A                      A
 Frequencies --   3436.0208              3464.1381              3497.2065
 Red. masses --      1.0504                 1.0744                 1.0750
 Frc consts  --      7.3063                 7.5964                 7.7463
 IR Inten    --     13.5189                 1.4882                 9.4652

                     49                     50                     51
                      A                      A                      A
 Frequencies --   3499.0619              3510.8685              3514.6677
 Red. masses --      1.0736                 1.0877                 1.0524
 Frc consts  --      7.7448                 7.8992                 7.6593
 IR Inten    --      3.2537                16.1585                 0.5910

                     52                     53                     54
                      A                      A                      A
 Frequencies --   3538.4832              3603.8673              3661.2499
 Red. masses --      1.0502                 1.0933                 1.0939
 Frc consts  --      7.7477                 8.3665                 8.6392
 IR Inten    --     37.3449                 3.9593                34.4128

 - Thermochemistry -
 -------------------
 Temperature   298.150 Kelvin.  Pressure   1.00000 Atm.
 Atom     1 has atomic number  7 and mass  14.00307

 Molecular mass:   133.10759 amu.
 Principal axes and moments of inertia in atomic units:
                           1         2         3
     Eigenvalues --   457.718292240.870462292.89073
           X            0.99994   0.00937   0.00647
           Y           -0.00963   0.99914   0.04023
           Z           -0.00609  -0.04029   0.99917
 This molecule is an asymmetric top.
 Rotational symmetry number  1.
 Warning -- assumption of classical behavior for rotation
           may cause significant error
 Rotational temperatures (Kelvin)      0.18923     0.03865     0.03777
 Rotational constants (GHZ):           3.94291     0.80538     0.78710
 Zero-point vibrational energy     454257.2 (Joules/Mol)
                                  108.57007 (Kcal/Mol)
 Warning -- explicit consideration of  15 degrees of freedom as
           vibrations may cause significant error
 Vibrational temperatures:     81.01   101.23   137.35   227.76   318.17
          (Kelvin)            346.03   421.05   472.53   511.84   567.58
                              612.20   737.19   768.26   830.09   864.69
                              972.64   997.41  1118.52  1143.91  1182.70
                             1251.19  1283.08  1363.06  1423.34  1471.98
                             1574.75  1606.27  1637.46  1672.89  1695.62
                             1759.91  1764.75  1927.39  1996.32  2051.80
                             2074.48  2091.95  2170.03  2209.68  2346.01
                             2365.91  2401.59  2499.62  4255.74  4316.16
                             4943.67  4984.12  5031.70  5034.37  5051.36
                             5056.82  5091.09  5185.16  5267.72

 Zero-point correction=                           0.173017 (Hartree/Particle)
 Thermal correction to Energy=                    0.183286
 Thermal correction to Enthalpy=                  0.184230
 Thermal correction to Gibbs Free Energy=         0.137369
 Sum of electronic and zero-point Energies=           -465.848548
 Sum of electronic and thermal Energies=              -465.838280
 Sum of electronic and thermal Enthalpies=            -465.837336
 Sum of electronic and thermal Free Energies=         -465.884196

                     E (Thermal)             CV                S
                      KCal/Mol        Cal/Mol-Kelvin    Cal/Mol-Kelvin
 Total                  115.013             37.977             98.626
 Electronic               0.000              0.000              0.000
 Translational            0.889              2.981             40.570
 Rotational               0.889              2.981             29.243
 Vibrational            113.236             32.015             28.812
 Vibration     1          0.596              1.975              4.583
 Vibration     2          0.598              1.968              4.143
 Vibration     3          0.603              1.952              3.545
 Vibration     4          0.621              1.893              2.570
 Vibration     5          0.648              1.809              1.950
 Vibration     6          0.658              1.778              1.799
 Vibration     7          0.688              1.687              1.459
 Vibration     8          0.712              1.619              1.268
 Vibration     9          0.731              1.563              1.141
 Vibration    10          0.761              1.482              0.983
 Vibration    11          0.787              1.415              0.873
 Vibration    12          0.867              1.223              0.628
 Vibration    13          0.889              1.175              0.578
 Vibration    14          0.933              1.081              0.491
 Vibration    15          0.959              1.030              0.448

 Optimization completed.
    -- Stationary point found.
 Normal termination of Gaussian 16 at Mon May 31 13:19:55 2021.
