 Gaussian 16, Revision A.03,
 Gaussian 16:  ES64L-G16RevA.03 25-Dec-2016

 -----------------------------
 # opt freq b3lyp/6-31g(2df,p)
 -----------------------------

 -------------------
 Title Card Required
 -------------------
 Symbolic Z-matrix:
 Charge =  0 Multiplicity = 1

 SCF Done:  E(RB3LYP) =  -410.670268726     A.U. after   13 cycles
 SCF Done:  E(RB3LYP) =  -410.687466725     A.U. after   12 cycles
 SCF Done:  E(RB3LYP) =  -410.694331654     A.U. after   12 cycles
 SCF Done:  E(RB3LYP) =  -410.697716129     A.U. after   12 cycles
 SCF Done:  E(RB3LYP) =  -410.699772618     A.U. after   11 cycles
 SCF Done:  E(RB3LYP) =  -410.700904764     A.U. after   11 cycles
 SCF Done:  E(RB3LYP) =  -410.701534223     A.U. after   11 cycles
 SCF Done:  E(RB3LYP) =  -410.701826094     A.U. after   10 cycles
 SCF Done:  E(RB3LYP) =  -410.701902890     A.U. after   10 cycles
 SCF Done:  E(RB3LYP) =  -410.701925601     A.U. after    9 cycles
 SCF Done:  E(RB3LYP) =  -410.701932077     A.U. after    8 cycles
 SCF Done:  E(RB3LYP) =  -410.701933671     A.U. after    7 cycles
 SCF Done:  E(RB3LYP) =  -410.701934211     A.U. after    7 cycles
 SCF Done:  E(RB3LYP) =  -410.701934383     A.U. after    7 cycles
 Optimization completed.
    -- Stationary point found.
 Normal termination of Gaussian 16 at Mon May 31 14:50:43 2021.

 ----------------------------------------------------------------------
 #N Geom=AllCheck Guess=TCheck SCRF=Check GenChk RB3LYP/6-31G(2df,p) Fr
 eq
 ----------------------------------------------------------------------

 Structure from the checkpoint file:  "NdCpNpNNpNpCN.chk"
 -------------------
 Title Card Required
 -------------------
 Charge =  0 Multiplicity = 1

                         Standard orientation:
 ---------------------------------------------------------------------
 Center     Atomic      Atomic             Coordinates (Angstroms)
 Number     Number       Type             X           Y           Z
 ---------------------------------------------------------------------
      1          7           0       -2.813093   -0.778324   -0.108414
      2          6           0       -1.774177   -0.036390   -0.165488
      3          7           0       -1.702915    1.345878   -0.120980
      4          7           0       -0.525005   -0.666161   -0.281001
      5          7           0        0.606456    0.066823    0.097829
      6          7           0        0.864413   -0.158196    1.527453
      7          6           0        1.760784   -0.446181   -0.646498
      8          7           0        2.921661    0.367207   -0.325666
      9          1           0       -3.662183   -0.217758   -0.080414
     10          1           0       -2.522982    1.829929   -0.449346
     11          1           0       -0.819030    1.728458   -0.426002
     12          1           0       -0.557852   -1.607864    0.107473
     13          1           0        0.257144    0.509850    2.002141
     14          1           0        1.810457    0.208887    1.651518
     15          1           0        1.456724   -0.445457   -1.700165
     16          1           0        1.984339   -1.483961   -0.347651
     17          1           0        2.896582    1.246340   -0.831374
     18          1           0        3.776540   -0.113588   -0.578811
 ---------------------------------------------------------------------

 SCF Done:  E(RB3LYP) =  -410.701934383     A.U. after    1 cycles

 The electronic state is 1-A.
 Alpha  occ. eigenvalues --  -14.38105 -14.35069 -14.33182 -14.33090 -14.32872
 Alpha  occ. eigenvalues --  -14.26340 -10.26238 -10.23928  -1.02409  -0.94003
 Alpha  occ. eigenvalues --   -0.89183  -0.85540  -0.82961  -0.74906  -0.63077
 Alpha  occ. eigenvalues --   -0.58714  -0.53479  -0.52367  -0.51266  -0.48101
 Alpha  occ. eigenvalues --   -0.47423  -0.45856  -0.42466  -0.41238  -0.39662
 Alpha  occ. eigenvalues --   -0.37218  -0.32606  -0.26404  -0.25921  -0.24963
 Alpha  occ. eigenvalues --   -0.21644  -0.21310
 Alpha virt. eigenvalues --    0.06473   0.07050   0.08716   0.11240   0.11959
 Alpha virt. eigenvalues --    0.12770   0.14346   0.15478   0.16166   0.18151
 Alpha virt. eigenvalues --    0.18189   0.19417   0.21688   0.23200   0.23859

 Mulliken charges:
               1
     1  N   -0.554615
     2  C    0.404766
     3  N   -0.541725
     4  N   -0.244534
     5  N   -0.108903
     6  N   -0.471031
     7  C   -0.068851
     8  N   -0.510784
     9  H    0.198188
    10  H    0.245727
    11  H    0.246396
    12  H    0.234483
    13  H    0.244686
    14  H    0.247921
    15  H    0.107635
    16  H    0.096737
    17  H    0.234467
    18  H    0.239437
 Sum of Mulliken charges =  -0.00000

 Dipole moment (field-independent basis, Debye):
    X=              2.9055    Y=              3.0661    Z=             -1.4381  Tot=              4.4622
 Quadrupole moment (field-independent basis, Debye-Ang):
   XX=            -43.3514   YY=            -46.8864   ZZ=            -48.5780
   XY=             -7.6824   XZ=             -2.8635   YZ=             -0.8995

  Exact polarizability:  91.972   2.280  62.811   0.064   0.584  52.243
 Approx polarizability: 117.772   7.405  97.980   0.501   1.430  77.025

                      1                      2                      3
                      A                      A                      A
 Frequencies --     82.8536                94.1524               123.8791
 Red. masses --      3.7718                 4.6915                 3.0258
 Frc consts  --      0.0153                 0.0245                 0.0274
 IR Inten    --      0.8654                 2.2856                 2.0843

                      4                      5                      6
                      A                      A                      A
 Frequencies --    216.8428               243.1100               311.3844
 Red. masses --      2.4517                 1.1890                 3.6550
 Frc consts  --      0.0679                 0.0414                 0.2088
 IR Inten    --     18.2951                14.1768                 2.7699

                      7                      8                      9
                      A                      A                      A
 Frequencies --    330.6691               402.2895               416.7080
 Red. masses --      1.1193                 3.6967                 1.1739
 Frc consts  --      0.0721                 0.3525                 0.1201
 IR Inten    --     64.5747                 2.5827                44.7469

                     10                     11                     12
                      A                      A                      A
 Frequencies --    454.4668               486.9202               533.8839
 Red. masses --      2.9250                 2.2663                 1.8203
 Frc consts  --      0.3559                 0.3166                 0.3057
 IR Inten    --     16.6808                32.1154                62.4564

                     13                     14                     15
                      A                      A                      A
 Frequencies --    569.0298               618.9183               693.2869
 Red. masses --      1.5805                 3.3101                 2.0472
 Frc consts  --      0.3015                 0.7471                 0.5798
 IR Inten    --    146.4654                69.1674                16.3149

                     16                     17                     18
                      A                      A                      A
 Frequencies --    761.9375               776.0655               830.8216
 Red. masses --      4.4035                 1.3038                 1.3443
 Frc consts  --      1.5062                 0.4627                 0.5467
 IR Inten    --     85.3411                26.2238               109.0926

                     19                     20                     21
                      A                      A                      A
 Frequencies --    883.8896               957.3741               967.6608
 Red. masses --      4.5377                 2.5626                 1.7170
 Frc consts  --      2.0887                 1.3839                 0.9473
 IR Inten    --     54.5395                10.2843                33.6848

                     22                     23                     24
                      A                      A                      A
 Frequencies --   1093.0956              1094.9203              1124.1170
 Red. masses --      1.9047                 3.0015                 1.4115
 Frc consts  --      1.3409                 2.1201                 1.0509
 IR Inten    --     38.5017                 6.6217                41.9770

                     25                     26                     27
                      A                      A                      A
 Frequencies --   1133.4361              1149.3854              1191.8603
 Red. masses --      1.8014                 1.8988                 1.6862
 Frc consts  --      1.3635                 1.4780                 1.4113
 IR Inten    --     77.8389                43.2687                52.7289

                     28                     29                     30
                      A                      A                      A
 Frequencies --   1234.9856              1334.4625              1397.6027
 Red. masses --      1.3219                 1.2468                 1.3751
 Frc consts  --      1.1878                 1.3082                 1.5825
 IR Inten    --      7.2793                 4.3749                17.1499

                     31                     32                     33
                      A                      A                      A
 Frequencies --   1421.6047              1454.9822              1472.4931
 Red. masses --      1.4317                 1.7848                 1.8702
 Frc consts  --      1.7048                 2.2262                 2.3891
 IR Inten    --     15.0432                44.3497                38.7403

                     34                     35                     36
                      A                      A                      A
 Frequencies --   1505.0875              1603.6228              1643.8977
 Red. masses --      1.0866                 1.2306                 1.0780
 Frc consts  --      1.4502                 1.8646                 1.7164
 IR Inten    --      1.7093               162.3584                28.0434

                     37                     38                     39
                      A                      A                      A
 Frequencies --   1651.3874              1741.9090              2969.3246
 Red. masses --      1.0952                 5.8608                 1.0647
 Frc consts  --      1.7597                10.4775                 5.5311
 IR Inten    --     41.0920               354.9756                56.6144

                     40                     41                     42
                      A                      A                      A
 Frequencies --   3045.0298              3425.6017              3471.8988
 Red. masses --      1.0972                 1.0498                 1.0733
 Frc consts  --      5.9940                 7.2579                 7.6226
 IR Inten    --     36.8166                10.0759                12.0885

                     43                     44                     45
                      A                      A                      A
 Frequencies --   3505.1841              3508.0272              3516.1704
 Red. masses --      1.0751                 1.0908                 1.0502
 Frc consts  --      7.7827                 7.9093                 7.6501
 IR Inten    --      1.9404                 9.6471                 0.5406

                     46                     47                     48
                      A                      A                      A
 Frequencies --   3562.5250              3604.7156              3688.7217
 Red. masses --      1.0470                 1.0929                 1.0985
 Frc consts  --      7.8291                 8.3670                 8.8065
 IR Inten    --     18.1002                 3.7028                36.3835

 - Thermochemistry -
 -------------------
 Temperature   298.150 Kelvin.  Pressure   1.00000 Atm.
 Atom     1 has atomic number  7 and mass  14.00307

 Molecular mass:   118.09669 amu.
 Principal axes and moments of inertia in atomic units:
                           1         2         3
     Eigenvalues --   394.213031681.502881701.82216
           X            0.99991  -0.01154  -0.00691
           Y            0.01151   0.99992  -0.00428
           Z            0.00696   0.00420   0.99997
 This molecule is an asymmetric top.
 Rotational symmetry number  1.
 Rotational temperatures (Kelvin)      0.21971     0.05151     0.05089
 Rotational constants (GHZ):           4.57809     1.07329     1.06048
 Zero-point vibrational energy     408537.8 (Joules/Mol)
                                   97.64289 (Kcal/Mol)
 Warning -- explicit consideration of  14 degrees of freedom as
           vibrations may cause significant error
 Vibrational temperatures:    119.21   135.46   178.23   311.99   349.78
          (Kelvin)            448.01   475.76   578.80   599.55   653.88
                              700.57   768.14   818.71   890.49   997.49
                             1096.26  1116.59  1195.37  1271.72  1377.45
                             1392.25  1572.72  1575.35  1617.35  1630.76
                             1653.71  1714.82  1776.87  1919.99  2010.84
                             2045.37  2093.39  2118.59  2165.49  2307.26
                             2365.20  2375.98  2506.22  4272.20  4381.12
                             4928.68  4995.29  5043.18  5047.27  5058.98
                             5125.68  5186.38  5307.25

 Zero-point correction=                           0.155604 (Hartree/Particle)
 Thermal correction to Energy=                    0.164785
 Thermal correction to Enthalpy=                  0.165729
 Thermal correction to Gibbs Free Energy=         0.121925
 Sum of electronic and zero-point Energies=           -410.546331
 Sum of electronic and thermal Energies=              -410.537149
 Sum of electronic and thermal Enthalpies=            -410.536205
 Sum of electronic and thermal Free Energies=         -410.580009

                     E (Thermal)             CV                S
                      KCal/Mol        Cal/Mol-Kelvin    Cal/Mol-Kelvin
 Total                  103.404             34.137             92.194
 Electronic               0.000              0.000              0.000
 Translational            0.889              2.981             40.214
 Rotational               0.889              2.981             28.513
 Vibrational            101.627             28.176             23.467
 Vibration     1          0.600              1.961              3.822
 Vibration     2          0.603              1.953              3.572
 Vibration     3          0.610              1.929              3.039
 Vibration     4          0.646              1.815              1.985
 Vibration     5          0.659              1.774              1.780
 Vibration     6          0.700              1.652              1.355
 Vibration     7          0.713              1.614              1.257
 Vibration     8          0.768              1.465              0.954
 Vibration     9          0.780              1.434              0.903
 Vibration    10          0.813              1.351              0.782
 Vibration    11          0.843              1.279              0.692
 Vibration    12          0.889              1.175              0.579
 Vibration    13          0.925              1.098              0.506
 Vibration    14          0.979              0.992              0.418

 Optimization completed.
    -- Stationary point found.
 Normal termination of Gaussian 16 at Mon May 31 15:18:37 2021.
