 Gaussian 16, Revision A.03,
 Gaussian 16:  ES64L-G16RevA.03 25-Dec-2016

 -----------------------------
 # opt freq b3lyp/6-31g(2df,p)
 -----------------------------

 -------------------
 Title Card Required
 -------------------
 Symbolic Z-matrix:
 Charge =  0 Multiplicity = 1

 SCF Done:  E(RB3LYP) =  -323.291467387     A.U. after   13 cycles
 SCF Done:  E(RB3LYP) =  -323.296256938     A.U. after   11 cycles
 SCF Done:  E(RB3LYP) =  -323.296851287     A.U. after   11 cycles
 SCF Done:  E(RB3LYP) =  -323.296997311     A.U. after   11 cycles
 SCF Done:  E(RB3LYP) =  -323.297116841     A.U. after    9 cycles
 SCF Done:  E(RB3LYP) =  -323.297217636     A.U. after   11 cycles
 SCF Done:  E(RB3LYP) =  -323.297414295     A.U. after   11 cycles
 SCF Done:  E(RB3LYP) =  -323.297306716     A.U. after   10 cycles
 SCF Done:  E(RB3LYP) =  -323.272512041     A.U. after   12 cycles
 SCF Done:  E(RB3LYP) =  -323.298638272     A.U. after   12 cycles
 SCF Done:  E(RB3LYP) =  -323.301532386     A.U. after   12 cycles
 SCF Done:  E(RB3LYP) =  -323.301853624     A.U. after   12 cycles
 SCF Done:  E(RB3LYP) =  -323.301993438     A.U. after   12 cycles
 SCF Done:  E(RB3LYP) =  -323.302096110     A.U. after   11 cycles
 SCF Done:  E(RB3LYP) =  -323.302180613     A.U. after   10 cycles
 SCF Done:  E(RB3LYP) =  -323.302183807     A.U. after    8 cycles
 SCF Done:  E(RB3LYP) =  -323.302184740     A.U. after    8 cycles
 SCF Done:  E(RB3LYP) =  -323.302184897     A.U. after    7 cycles
 SCF Done:  E(RB3LYP) =  -323.302184945     A.U. after    6 cycles
 Optimization completed.
    -- Stationary point found.
 Normal termination of Gaussian 16 at Tue Jun  1 00:52:05 2021.

 ----------------------------------------------------------------------
 #N Geom=AllCheck Guess=TCheck SCRF=Check GenChk RB3LYP/6-31G(2df,p) Fr
 eq
 ----------------------------------------------------------------------

 Structure from the checkpoint file:  "NdCpCNpCCN.chk"
 -------------------
 Title Card Required
 -------------------
 Charge =  0 Multiplicity = 1

                         Standard orientation:
 ---------------------------------------------------------------------
 Center     Atomic      Atomic             Coordinates (Angstroms)
 Number     Number       Type             X           Y           Z
 ---------------------------------------------------------------------
      1          7           0       -1.095601    1.602809   -0.282994
      2          6           0       -0.598129    0.496233    0.094615
      3          6           0       -1.377452   -0.819086    0.118057
      4          7           0       -2.804393   -0.600658   -0.098872
      5          6           0        0.841468    0.432101    0.548535
      6          6           0        1.754784   -0.329738   -0.425378
      7          7           0        3.125447   -0.352698    0.093632
      8          1           0       -2.067957    1.439866   -0.571084
      9          1           0       -1.134263   -1.351510    1.053302
     10          1           0       -1.002038   -1.457666   -0.692105
     11          1           0       -3.246110   -0.278626    0.756348
     12          1           0       -3.262596   -1.466359   -0.358804
     13          1           0        0.913045   -0.051151    1.531002
     14          1           0        1.201015    1.460518    0.652263
     15          1           0        1.657453    0.123854   -1.426363
     16          1           0        1.420768   -1.370566   -0.516049
     17          1           0        3.492292    0.595240    0.118189
     18          1           0        3.726190   -0.866843   -0.544037
 ---------------------------------------------------------------------

 SCF Done:  E(RB3LYP) =  -323.302184945     A.U. after    1 cycles

 The electronic state is 1-A.
 Alpha  occ. eigenvalues --  -14.32279 -14.30704 -14.29236 -10.21748 -10.21678
 Alpha  occ. eigenvalues --  -10.20730 -10.17662  -0.91006  -0.87818  -0.86517
 Alpha  occ. eigenvalues --   -0.74599  -0.68173  -0.61578  -0.52842  -0.50931
 Alpha  occ. eigenvalues --   -0.48345  -0.45966  -0.45831  -0.44921  -0.40369
 Alpha  occ. eigenvalues --   -0.40329  -0.36876  -0.35932  -0.33957  -0.28593
 Alpha  occ. eigenvalues --   -0.25269  -0.24573  -0.23579
 Alpha virt. eigenvalues --    0.01597   0.07213   0.08492   0.10403   0.12766
 Alpha virt. eigenvalues --    0.13853   0.15695   0.16668   0.17879   0.18109
 Alpha virt. eigenvalues --    0.18492   0.20019   0.23285   0.24101   0.25236

 Mulliken charges:
               1
     1  N   -0.456483
     2  C    0.297153
     3  C   -0.234993
     4  N   -0.509459
     5  C   -0.224576
     6  C   -0.147290
     7  N   -0.508803
     8  H    0.224097
     9  H    0.098248
    10  H    0.125396
    11  H    0.236074
    12  H    0.235456
    13  H    0.107828
    14  H    0.112056
    15  H    0.093975
    16  H    0.100279
    17  H    0.225897
    18  H    0.225144
 Sum of Mulliken charges =  -0.00000

 Dipole moment (field-independent basis, Debye):
    X=             -0.3902    Y=             -2.6283    Z=             -0.0368  Tot=              2.6573
 Quadrupole moment (field-independent basis, Debye-Ang):
   XX=            -36.5724   YY=            -46.5811   ZZ=            -44.2431
   XY=              6.1260   XZ=             -6.4499   YZ=              2.2666

  Exact polarizability:  80.024  -2.145  65.039   2.272  -0.714  51.108
 Approx polarizability:  96.426  -6.959 102.062   5.180  -3.686  78.112

                      1                      2                      3
                      A                      A                      A
 Frequencies --     39.8462                86.6336               108.4078
 Red. masses --      2.2965                 2.3730                 2.7816
 Frc consts  --      0.0021                 0.0105                 0.0193
 IR Inten    --      7.0062                 5.3796                 0.2431

                      4                      5                      6
                      A                      A                      A
 Frequencies --    189.8270               240.2649               255.5098
 Red. masses --      2.8776                 1.1124                 1.1852
 Frc consts  --      0.0611                 0.0378                 0.0456
 IR Inten    --      0.1156                31.7751                32.4614

                      7                      8                      9
                      A                      A                      A
 Frequencies --    300.2552               360.3399               420.0410
 Red. masses --      2.7658                 3.7866                 2.8542
 Frc consts  --      0.1469                 0.2897                 0.2967
 IR Inten    --      5.2656                11.1002                 1.3699

                     10                     11                     12
                      A                      A                      A
 Frequencies --    521.1302               654.3833               768.1449
 Red. masses --      2.7710                 3.2932                 1.7370
 Frc consts  --      0.4434                 0.8309                 0.6039
 IR Inten    --     12.3747                46.2253                 6.2784

                     13                     14                     15
                      A                      A                      A
 Frequencies --    808.5515               842.9767               868.4730
 Red. masses --      1.4444                 1.3556                 1.3351
 Frc consts  --      0.5563                 0.5676                 0.5933
 IR Inten    --     16.7745                81.9185                47.4492

                     16                     17                     18
                      A                      A                      A
 Frequencies --    916.2512               979.5636              1037.6801
 Red. masses --      1.5980                 1.9872                 2.1810
 Frc consts  --      0.7904                 1.1235                 1.3837
 IR Inten    --    103.1835                 0.8657                21.9073

                     19                     20                     21
                      A                      A                      A
 Frequencies --   1040.9642              1077.2546              1100.8119
 Red. masses --      1.3164                 2.8866                 2.1974
 Frc consts  --      0.8405                 1.9737                 1.5688
 IR Inten    --     24.0388                 8.0190                 7.7373

                     22                     23                     24
                      A                      A                      A
 Frequencies --   1128.3092              1171.3937              1182.6865
 Red. masses --      1.7979                 1.2652                 1.2988
 Frc consts  --      1.3486                 1.0229                 1.0704
 IR Inten    --      5.9622                13.3574                 9.6122

                     25                     26                     27
                      A                      A                      A
 Frequencies --   1263.2141              1320.6749              1324.2957
 Red. masses --      1.3465                 1.1585                 1.1942
 Frc consts  --      1.2659                 1.1905                 1.2340
 IR Inten    --     13.0771                 4.8321                16.7746

                     28                     29                     30
                      A                      A                      A
 Frequencies --   1343.1694              1375.4004              1422.7708
 Red. masses --      1.2843                 1.4091                 1.5700
 Frc consts  --      1.3652                 1.5705                 1.8724
 IR Inten    --      6.9945                45.9980                30.5451

                     31                     32                     33
                      A                      A                      A
 Frequencies --   1426.3026              1479.1909              1483.2595
 Red. masses --      1.5433                 1.1010                 1.1032
 Frc consts  --      1.8498                 1.4193                 1.4300
 IR Inten    --     25.0281                 9.2737                 1.7733

                     34                     35                     36
                      A                      A                      A
 Frequencies --   1517.8682              1657.1759              1659.0811
 Red. masses --      1.0880                 1.1053                 1.0881
 Frc consts  --      1.4769                 1.7885                 1.7647
 IR Inten    --      1.0896                27.8525                18.9023

                     37                     38                     39
                      A                      A                      A
 Frequencies --   1734.4403              2955.2179              2957.6858
 Red. masses --      7.8643                 1.0713                 1.0715
 Frc consts  --     13.9389                 5.5124                 5.5225
 IR Inten    --     51.7959                43.5958                63.4183

                     40                     41                     42
                      A                      A                      A
 Frequencies --   3032.5473              3036.2803              3045.8969
 Red. masses --      1.0617                 1.0869                 1.0876
 Frc consts  --      5.7529                 5.9039                 5.9449
 IR Inten    --     21.0585                20.7805                24.9659

                     43                     44                     45
                      A                      A                      A
 Frequencies --   3092.6721              3388.7350              3483.0515
 Red. masses --      1.1016                 1.0714                 1.0495
 Frc consts  --      6.2078                 7.2488                 7.5019
 IR Inten    --     27.5177                 6.4607                 0.7212

                     46                     47                     48
                      A                      A                      A
 Frequencies --   3510.3066              3560.5677              3592.3827
 Red. masses --      1.0499                 1.0918                 1.0926
 Frc consts  --      7.6226                 8.1550                 8.3079
 IR Inten    --      0.5299                 0.1326                 2.5589

 - Thermochemistry -
 -------------------
 Temperature   298.150 Kelvin.  Pressure   1.00000 Atm.
 Atom     1 has atomic number  7 and mass  14.00307

 Molecular mass:   101.09530 amu.
 Principal axes and moments of inertia in atomic units:
                           1         2         3
     Eigenvalues --   307.541471475.182021672.35537
           X            0.99987   0.01373  -0.00794
           Y           -0.01359   0.99975   0.01779
           Z            0.00818  -0.01768   0.99981
 This molecule is an asymmetric top.
 Rotational symmetry number  1.
 Rotational temperatures (Kelvin)      0.28163     0.05871     0.05179
 Rotational constants (GHZ):           5.86829     1.22340     1.07916
 Zero-point vibrational energy     423250.1 (Joules/Mol)
                                  101.15920 (Kcal/Mol)
 Warning -- explicit consideration of  10 degrees of freedom as
           vibrations may cause significant error
 Vibrational temperatures:     57.33   124.65   155.97   273.12   345.69
          (Kelvin)            367.62   432.00   518.45   604.35   749.79
                              941.51  1105.19  1163.33  1212.86  1249.54
                             1318.28  1409.37  1492.99  1497.72  1549.93
                             1583.82  1623.39  1685.37  1701.62  1817.48
                             1900.16  1905.37  1932.52  1978.89  2047.05
                             2052.13  2128.23  2134.08  2183.87  2384.31
                             2387.05  2495.47  4251.90  4255.45  4363.16
                             4368.53  4382.37  4449.67  4875.63  5011.33
                             5050.55  5122.86  5168.64

 Zero-point correction=                           0.161207 (Hartree/Particle)
 Thermal correction to Energy=                    0.169976
 Thermal correction to Enthalpy=                  0.170921
 Thermal correction to Gibbs Free Energy=         0.127238
 Sum of electronic and zero-point Energies=           -323.140978
 Sum of electronic and thermal Energies=              -323.132209
 Sum of electronic and thermal Enthalpies=            -323.131264
 Sum of electronic and thermal Free Energies=         -323.174947

                     E (Thermal)             CV                S
                      KCal/Mol        Cal/Mol-Kelvin    Cal/Mol-Kelvin
 Total                  106.662             30.531             91.938
 Electronic               0.000              0.000              0.000
 Translational            0.889              2.981             39.750
 Rotational               0.889              2.981             28.119
 Vibrational            104.884             24.569             24.069
 Vibration     1          0.594              1.981              5.267
 Vibration     2          0.601              1.959              3.735
 Vibration     3          0.606              1.942              3.297
 Vibration     4          0.633              1.854              2.230
 Vibration     5          0.657              1.779              1.801
 Vibration     6          0.666              1.753              1.692
 Vibration     7          0.693              1.673              1.415
 Vibration     8          0.735              1.554              1.121
 Vibration     9          0.783              1.427              0.892
 Vibration    10          0.876              1.203              0.607

 Optimization completed.
    -- Stationary point found.
 Normal termination of Gaussian 16 at Tue Jun  1 01:09:48 2021.
