 Gaussian 16, Revision A.03,
 Gaussian 16:  ES64L-G16RevA.03 25-Dec-2016

 -----------------------------
 # opt freq b3lyp/6-31g(2df,p)
 -----------------------------

 -------------------
 Title Card Required
 -------------------
 Symbolic Z-matrix:
 Charge =  0 Multiplicity = 1

 SCF Done:  E(RB3LYP) =  -355.302973882     A.U. after   13 cycles
 SCF Done:  E(RB3LYP) =  -355.307976984     A.U. after   13 cycles
 SCF Done:  E(RB3LYP) =  -355.309825157     A.U. after   13 cycles
 SCF Done:  E(RB3LYP) =  -355.310150629     A.U. after   13 cycles
 SCF Done:  E(RB3LYP) =  -355.310571304     A.U. after   13 cycles
 SCF Done:  E(RB3LYP) =  -355.310467257     A.U. after   13 cycles
 SCF Done:  E(RB3LYP) =  -355.311766763     A.U. after   14 cycles
 SCF Done:  E(RB3LYP) =  -355.312175752     A.U. after   13 cycles
 SCF Done:  E(RB3LYP) =  -355.312383530     A.U. after   13 cycles
 SCF Done:  E(RB3LYP) =  -355.312389626     A.U. after   12 cycles
 SCF Done:  E(RB3LYP) =  -355.312422476     A.U. after   12 cycles
 SCF Done:  E(RB3LYP) =  -355.312424350     A.U. after    8 cycles
 Optimization completed.
    -- Stationary point found.
 Normal termination of Gaussian 16 at Mon May 31 18:15:48 2021.

 ----------------------------------------------------------------------
 #N Geom=AllCheck Guess=TCheck SCRF=Check GenChk RB3LYP/6-31G(2df,p) Fr
 eq
 ----------------------------------------------------------------------

 Structure from the checkpoint file:  "NdNCCpNpNN.chk"
 -------------------
 Title Card Required
 -------------------
 Charge =  0 Multiplicity = 1

                         Standard orientation:
 ---------------------------------------------------------------------
 Center     Atomic      Atomic             Coordinates (Angstroms)
 Number     Number       Type             X           Y           Z
 ---------------------------------------------------------------------
      1          7           0       -2.922688   -0.477175   -0.386741
      2          7           0       -2.027272    0.276958    0.025553
      3          6           0       -0.860531   -0.446741    0.533640
      4          6           0        0.410798    0.097994   -0.151832
      5          7           0        0.661048    1.518150    0.057849
      6          7           0        1.554192   -0.635339    0.373879
      7          7           0        2.769332   -0.453683   -0.354374
      8          1           0       -3.687407    0.132247   -0.727683
      9          1           0       -0.982043   -1.528103    0.384600
     10          1           0       -0.786383   -0.232960    1.607352
     11          1           0        0.294626   -0.042267   -1.244854
     12          1           0        0.728816    1.689268    1.059122
     13          1           0       -0.134376    2.051581   -0.280587
     14          1           0        1.361305   -1.630551    0.388017
     15          1           0        3.090436    0.483672   -0.129807
     16          1           0        2.571132   -0.432787   -1.360172
 ---------------------------------------------------------------------

 SCF Done:  E(RB3LYP) =  -355.312424350     A.U. after    1 cycles

 The electronic state is 1-A.
 Alpha  occ. eigenvalues --  -14.39140 -14.38003 -14.33991 -14.32968 -14.31184
 Alpha  occ. eigenvalues --  -10.24310 -10.21276  -1.03580  -0.96644  -0.88136
 Alpha  occ. eigenvalues --   -0.78730  -0.74984  -0.63745  -0.59049  -0.52708
 Alpha  occ. eigenvalues --   -0.50651  -0.48421  -0.46515  -0.44940  -0.42883
 Alpha  occ. eigenvalues --   -0.42049  -0.39843  -0.38240  -0.35088  -0.25311
 Alpha  occ. eigenvalues --   -0.25052  -0.23636  -0.23472
 Alpha virt. eigenvalues --   -0.04922   0.08124   0.09900   0.10556   0.10762
 Alpha virt. eigenvalues --    0.13526   0.14615   0.15107   0.16884   0.17765
 Alpha virt. eigenvalues --    0.21299   0.22214   0.24363   0.26326   0.28982

 Mulliken charges:
               1
     1  N   -0.272202
     2  N   -0.122559
     3  C   -0.127102
     4  C    0.062745
     5  N   -0.492898
     6  N   -0.277389
     7  N   -0.462875
     8  H    0.245048
     9  H    0.100304
    10  H    0.123227
    11  H    0.064105
    12  H    0.225548
    13  H    0.235924
    14  H    0.231088
    15  H    0.251247
    16  H    0.215788
 Sum of Mulliken charges =  -0.00000

 Dipole moment (field-independent basis, Debye):
    X=             -1.5685    Y=              0.6784    Z=             -0.4434  Tot=              1.7655
 Quadrupole moment (field-independent basis, Debye-Ang):
   XX=            -46.3303   YY=            -42.8452   ZZ=            -40.3735
   XY=             -0.7483   XZ=             -0.8520   YZ=              0.7371

  Exact polarizability:  80.617   1.127  54.145   4.516   0.275  49.406
 Approx polarizability: 103.177   4.815  81.192   9.653   1.624  77.219

                      1                      2                      3
                      A                      A                      A
 Frequencies --     75.0550               102.7114               155.1844
 Red. masses --      4.3298                 4.8807                 2.4399
 Frc consts  --      0.0144                 0.0303                 0.0346
 IR Inten    --      0.4212                 0.9405                 6.5331

                      4                      5                      6
                      A                      A                      A
 Frequencies --    193.4396               269.3224               294.2344
 Red. masses --      3.7187                 1.4522                 1.1078
 Frc consts  --      0.0820                 0.0621                 0.0565
 IR Inten    --      4.2314                32.9432                26.3497

                      7                      8                      9
                      A                      A                      A
 Frequencies --    329.6227               395.4808               465.0257
 Red. masses --      2.1964                 4.6967                 3.4274
 Frc consts  --      0.1406                 0.4328                 0.4367
 IR Inten    --     18.7769                 1.0812                16.1456

                     10                     11                     12
                      A                      A                      A
 Frequencies --    539.9734               594.2099               788.0678
 Red. masses --      2.2519                 2.1530                 1.8096
 Frc consts  --      0.3869                 0.4479                 0.6621
 IR Inten    --     13.2898                 0.7467               118.1671

                     13                     14                     15
                      A                      A                      A
 Frequencies --    862.7617               894.9058               935.0527
 Red. masses --      1.7025                 2.0901                 1.2774
 Frc consts  --      0.7467                 0.9862                 0.6580
 IR Inten    --     61.0311                12.5706               131.8926

                     16                     17                     18
                      A                      A                      A
 Frequencies --    960.4994               998.8590              1020.8935
 Red. masses --      1.8061                 2.8287                 2.2659
 Frc consts  --      0.9817                 1.6628                 1.3914
 IR Inten    --     45.0029                41.4315                25.5255

                     19                     20                     21
                      A                      A                      A
 Frequencies --   1097.8410              1176.1426              1195.9433
 Red. masses --      1.8806                 2.1604                 1.5949
 Frc consts  --      1.3354                 1.7607                 1.3440
 IR Inten    --     28.2288                38.5706                14.6496

                     22                     23                     24
                      A                      A                      A
 Frequencies --   1213.9813              1256.8623              1313.2730
 Red. masses --      1.5857                 1.3246                 1.2803
 Frc consts  --      1.3769                 1.2328                 1.3010
 IR Inten    --     22.3665                21.0692                16.8953

                     25                     26                     27
                      A                      A                      A
 Frequencies --   1332.1604              1363.5365              1429.6598
 Red. masses --      1.3089                 1.3365                 1.3454
 Frc consts  --      1.3685                 1.4640                 1.6202
 IR Inten    --     16.6640                16.0759                14.6272

                     28                     29                     30
                      A                      A                      A
 Frequencies --   1467.1571              1495.6957              1511.5711
 Red. masses --      1.0991                 1.3022                 1.1632
 Frc consts  --      1.3939                 1.7164                 1.5658
 IR Inten    --      3.0459                29.3152                 9.6104

                     31                     32                     33
                      A                      A                      A
 Frequencies --   1644.5470              1655.1704              1694.8141
 Red. masses --      1.1320                 7.9094                 1.0638
 Frc consts  --      1.8038                12.7668                 1.8003
 IR Inten    --     27.7249                 8.4510                17.2551

                     34                     35                     36
                      A                      A                      A
 Frequencies --   2904.8190              3006.7031              3070.5606
 Red. masses --      1.0809                 1.0563                 1.1049
 Frc consts  --      5.3737                 5.6264                 6.1378
 IR Inten    --     63.8728                19.8068                17.8692

                     37                     38                     39
                      A                      A                      A
 Frequencies --   3244.6236              3366.4237              3477.8030
 Red. masses --      1.0738                 1.0593                 1.0505
 Frc consts  --      6.6602                 7.0732                 7.4863
 IR Inten    --     26.9932                18.2972                 0.1293

                     40                     41                     42
                      A                      A                      A
 Frequencies --   3528.3360              3544.0302              3569.5401
 Red. masses --      1.0767                 1.0781                 1.0899
 Frc consts  --      7.8976                 7.9781                 8.1822
 IR Inten    --      1.7203                 3.0090                 3.7054

 - Thermochemistry -
 -------------------
 Temperature   298.150 Kelvin.  Pressure   1.00000 Atm.
 Atom     1 has atomic number  7 and mass  14.00307

 Molecular mass:   103.08580 amu.
 Principal axes and moments of inertia in atomic units:
                           1         2         3
     Eigenvalues --   278.075141382.365651534.44957
           X            0.99999   0.00102  -0.00534
           Y           -0.00101   1.00000   0.00226
           Z            0.00534  -0.00226   0.99998
 This molecule is an asymmetric top.
 Rotational symmetry number  1.
 Rotational temperatures (Kelvin)      0.31148     0.06266     0.05645
 Rotational constants (GHZ):           6.49012     1.30555     1.17615
 Zero-point vibrational energy     361490.5 (Joules/Mol)
                                   86.39831 (Kcal/Mol)
 Warning -- explicit consideration of  11 degrees of freedom as
           vibrations may cause significant error
 Vibrational temperatures:    107.99   147.78   223.28   278.32   387.49
          (Kelvin)            423.34   474.25   569.01   669.07   776.90
                              854.94  1133.85  1241.32  1287.57  1345.33
                             1381.94  1437.14  1468.84  1579.55  1692.21
                             1720.70  1746.65  1808.34  1889.51  1916.68
                             1961.82  2056.96  2110.91  2151.97  2174.81
                             2366.14  2381.42  2438.46  4179.39  4325.98
                             4417.85  4668.29  4843.53  5003.78  5076.49
                             5099.07  5135.77

 Zero-point correction=                           0.137684 (Hartree/Particle)
 Thermal correction to Energy=                    0.145940
 Thermal correction to Enthalpy=                  0.146884
 Thermal correction to Gibbs Free Energy=         0.104948
 Sum of electronic and zero-point Energies=           -355.174740
 Sum of electronic and thermal Energies=              -355.166484
 Sum of electronic and thermal Enthalpies=            -355.165540
 Sum of electronic and thermal Free Energies=         -355.207476

                     E (Thermal)             CV                S
                      KCal/Mol        Cal/Mol-Kelvin    Cal/Mol-Kelvin
 Total                   91.579             28.929             88.262
 Electronic               0.000              0.000              0.000
 Translational            0.889              2.981             39.809
 Rotational               0.889              2.981             27.869
 Vibrational             89.801             22.967             20.584
 Vibration     1          0.599              1.966              4.016
 Vibration     2          0.605              1.947              3.402
 Vibration     3          0.620              1.897              2.608
 Vibration     4          0.635              1.849              2.195
 Vibration     5          0.674              1.730              1.601
 Vibration     6          0.689              1.684              1.449
 Vibration     7          0.712              1.616              1.262
 Vibration     8          0.762              1.480              0.979
 Vibration     9          0.822              1.328              0.752
 Vibration    10          0.895              1.162              0.565
 Vibration    11          0.952              1.044              0.460

                           ! Non-Optimized Parameters !
 Normal termination of Gaussian 16 at Mon May 31 18:31:26 2021.
