 Gaussian 16, Revision A.03,
 Gaussian 16:  ES64L-G16RevA.03 25-Dec-2016

 -----------------------------
 # opt freq b3lyp/6-31g(2df,p)
 -----------------------------

 -------------------
 Title Card Required
 -------------------
 Symbolic Z-matrix:
 Charge =  0 Multiplicity = 1

 SCF Done:  E(RB3LYP) =  -432.669844757     A.U. after   13 cycles
 SCF Done:  E(RB3LYP) =  -432.677129463     A.U. after   13 cycles
 SCF Done:  E(RB3LYP) =  -432.678299859     A.U. after   12 cycles
 SCF Done:  E(RB3LYP) =  -432.678747101     A.U. after   13 cycles
 SCF Done:  E(RB3LYP) =  -432.679375684     A.U. after   12 cycles
 SCF Done:  E(RB3LYP) =  -432.680125885     A.U. after   13 cycles
 SCF Done:  E(RB3LYP) =  -432.680418625     A.U. after   13 cycles
 SCF Done:  E(RB3LYP) =  -432.680476713     A.U. after   13 cycles
 SCF Done:  E(RB3LYP) =  -432.680619370     A.U. after   12 cycles
 SCF Done:  E(RB3LYP) =  -432.680659696     A.U. after   12 cycles
 SCF Done:  E(RB3LYP) =  -432.680677134     A.U. after   11 cycles
 SCF Done:  E(RB3LYP) =  -432.680678564     A.U. after    9 cycles
 SCF Done:  E(RB3LYP) =  -432.680678835     A.U. after    9 cycles
 SCF Done:  E(RB3LYP) =  -432.680679093     A.U. after    8 cycles
 SCF Done:  E(RB3LYP) =  -432.680679126     A.U. after    7 cycles
 Optimization completed.
    -- Stationary point found.
 Normal termination of Gaussian 16 at Tue Jun  1 16:25:02 2021.

 ----------------------------------------------------------------------
 #N Geom=AllCheck Guess=TCheck SCRF=Check GenChk RB3LYP/6-31G(2df,p) Fr
 eq
 ----------------------------------------------------------------------

 Structure from the checkpoint file:  "NdNCNCC1CN1N.chk"
 -------------------
 Title Card Required
 -------------------
 Charge =  0 Multiplicity = 1

                         Standard orientation:
 ---------------------------------------------------------------------
 Center     Atomic      Atomic             Coordinates (Angstroms)
 Number     Number       Type             X           Y           Z
 ---------------------------------------------------------------------
      1          7           0        4.074720   -0.595420   -0.439971
      2          7           0        3.164697   -0.412205    0.380743
      3          6           0        2.159438    0.551575   -0.088904
      4          7           0        0.852399    0.033791    0.253037
      5          6           0       -0.224944    0.977878   -0.015276
      6          6           0       -1.561221    0.426130    0.416173
      7          6           0       -2.850783    0.914560   -0.158020
      8          7           0       -2.299236   -0.398789   -0.523354
      9          7           0       -2.908421   -1.556317    0.060662
     10          1           0        4.731719   -1.267996   -0.005638
     11          1           0        2.238343    0.711361   -1.171648
     12          1           0        2.408304    1.507503    0.417378
     13          1           0        0.855231   -0.234237    1.232996
     14          1           0       -0.258345    1.168639   -1.094567
     15          1           0       -0.069309    1.959141    0.477575
     16          1           0       -1.611685    0.106036    1.458541
     17          1           0       -2.865615    1.660695   -0.948578
     18          1           0       -3.715866    0.932395    0.503350
     19          1           0       -3.449378   -1.985350   -0.685697
     20          1           0       -3.587448   -1.276463    0.774630
 ---------------------------------------------------------------------

 SCF Done:  E(RB3LYP) =  -432.680679126     A.U. after    1 cycles

 The electronic state is 1-A.
 Alpha  occ. eigenvalues --  -14.38244 -14.37278 -14.35322 -14.33814 -14.31533
 Alpha  occ. eigenvalues --  -10.22989 -10.21546 -10.21070 -10.21031  -1.02969
 Alpha  occ. eigenvalues --   -0.99553  -0.90904  -0.84265  -0.75298  -0.67739
 Alpha  occ. eigenvalues --   -0.62911  -0.59974  -0.58066  -0.51633  -0.51042
 Alpha  occ. eigenvalues --   -0.48949  -0.47478  -0.45374  -0.44188  -0.42783
 Alpha  occ. eigenvalues --   -0.40099  -0.38730  -0.36697  -0.35911  -0.35270
 Alpha  occ. eigenvalues --   -0.33368  -0.24473  -0.23832  -0.23128  -0.22249
 Alpha virt. eigenvalues --   -0.04042   0.07825   0.09008   0.10811   0.10944
 Alpha virt. eigenvalues --    0.11749   0.12624   0.14215   0.15063   0.15619
 Alpha virt. eigenvalues --    0.16231   0.17309   0.17401   0.18589   0.20877

 Mulliken charges:
               1
     1  N   -0.269635
     2  N   -0.124818
     3  C   -0.039099
     4  N   -0.293125
     5  C   -0.141479
     6  C    0.038614
     7  C   -0.264938
     8  N   -0.081970
     9  N   -0.449260
    10  H    0.245081
    11  H    0.116162
    12  H    0.090942
    13  H    0.220438
    14  H    0.113900
    15  H    0.075128
    16  H    0.082606
    17  H    0.117118
    18  H    0.104377
    19  H    0.245177
    20  H    0.214780
 Sum of Mulliken charges =  -0.00000

 Dipole moment (field-independent basis, Debye):
    X=             -1.7581    Y=              1.5470    Z=              1.4719  Tot=              2.7660
 Quadrupole moment (field-independent basis, Debye-Ang):
   XX=            -43.4258   YY=            -54.4213   ZZ=            -54.5680
   XY=             -1.0460   XZ=              0.8863   YZ=             -0.0758

  Exact polarizability: 105.607  -4.959  74.623  -2.538  -1.698  63.795
 Approx polarizability: 124.685  -7.620 109.281  -6.371  -0.679 103.444

                      1                      2                      3
                      A                      A                      A
 Frequencies --     42.7099                59.3362                83.0712
 Red. masses --      4.4179                 3.2093                 3.9740
 Frc consts  --      0.0047                 0.0067                 0.0162
 IR Inten    --      0.9063                 0.7405                 3.2770

                      4                      5                      6
                      A                      A                      A
 Frequencies --    105.5602               141.1952               180.2803
 Red. masses --      3.2925                 2.8874                 1.1096
 Frc consts  --      0.0216                 0.0339                 0.0212
 IR Inten    --      1.6432                 0.7973                33.9869

                      7                      8                      9
                      A                      A                      A
 Frequencies --    220.1387               300.9436               342.2039
 Red. masses --      4.2599                 3.8152                 3.0187
 Frc consts  --      0.1216                 0.2036                 0.2083
 IR Inten    --      0.6517                 0.4892                 2.1269

                     10                     11                     12
                      A                      A                      A
 Frequencies --    419.5966               475.5519               493.1341
 Red. masses --      3.3692                 2.7956                 2.5615
 Frc consts  --      0.3495                 0.3725                 0.3670
 IR Inten    --      6.5796                 3.8941                 3.7149

                     13                     14                     15
                      A                      A                      A
 Frequencies --    574.5243               763.6646               775.8952
 Red. masses --      3.3872                 1.6631                 2.1295
 Frc consts  --      0.6587                 0.5714                 0.7553
 IR Inten    --     14.5714                68.0737                 7.0054

                     16                     17                     18
                      A                      A                      A
 Frequencies --    811.0499               855.6965               889.5755
 Red. masses --      2.4406                 1.3612                 1.7308
 Frc consts  --      0.9459                 0.5872                 0.8070
 IR Inten    --      5.2811                30.3455                 9.4589

                     19                     20                     21
                      A                      A                      A
 Frequencies --    968.9547               984.5367              1010.4237
 Red. masses --      1.5914                 2.6613                 2.1809
 Frc consts  --      0.8803                 1.5199                 1.3119
 IR Inten    --     31.0210                 5.0150                32.1673

                     22                     23                     24
                      A                      A                      A
 Frequencies --   1042.9929              1084.1374              1093.5381
 Red. masses --      1.7577                 1.6034                 1.3708
 Frc consts  --      1.1265                 1.1104                 0.9658
 IR Inten    --     10.5320                11.4545                 6.7574

                     25                     26                     27
                      A                      A                      A
 Frequencies --   1105.5818              1113.6156              1157.4140
 Red. masses --      1.6624                 1.6115                 2.6934
 Frc consts  --      1.1972                 1.1775                 2.1258
 IR Inten    --     14.7109                34.8814                55.1762

                     28                     29                     30
                      A                      A                      A
 Frequencies --   1187.9136              1200.6762              1225.9983
 Red. masses --      2.0806                 2.0750                 1.2328
 Frc consts  --      1.7299                 1.7625                 1.0917
 IR Inten    --     20.1304                14.1043                 2.8116

                     31                     32                     33
                      A                      A                      A
 Frequencies --   1264.8860              1289.0621              1340.4052
 Red. masses --      1.6822                 1.2335                 1.2376
 Frc consts  --      1.5857                 1.2077                 1.3101
 IR Inten    --      5.9267                 1.5982                59.0121

                     34                     35                     36
                      A                      A                      A
 Frequencies --   1354.1987              1395.5384              1450.4761
 Red. masses --      1.3814                 1.4125                 1.6045
 Frc consts  --      1.4925                 1.6208                 1.9889
 IR Inten    --     11.8978                 3.2863                 2.5004

                     37                     38                     39
                      A                      A                      A
 Frequencies --   1485.4906              1492.5104              1496.6394
 Red. masses --      1.2862                 1.1403                 1.2158
 Frc consts  --      1.6722                 1.4966                 1.6045
 IR Inten    --     23.9740                54.1798                 5.0069

                     40                     41                     42
                      A                      A                      A
 Frequencies --   1499.4527              1510.5617              1660.9821
 Red. masses --      1.3097                 1.1149                 1.0755
 Frc consts  --      1.7349                 1.4989                 1.7482
 IR Inten    --     10.6207                 1.0323                16.6605

                     43                     44                     45
                      A                      A                      A
 Frequencies --   1667.1625              2885.8436              2895.8257
 Red. masses --     10.3444                 1.0697                 1.0725
 Frc consts  --     16.9400                 5.2489                 5.2990
 IR Inten    --      3.3718                53.9465               107.0992

                     46                     47                     48
                      A                      A                      A
 Frequencies --   3041.5378              3050.6841              3088.1012
 Red. masses --      1.0885                 1.0851                 1.0546
 Frc consts  --      5.9327                 5.9497                 5.9254
 IR Inten    --     18.9021                15.5422                22.6541

                     49                     50                     51
                      A                      A                      A
 Frequencies --   3094.0526              3178.2110              3241.7244
 Red. masses --      1.0845                 1.1174                 1.0738
 Frc consts  --      6.1168                 6.6497                 6.6485
 IR Inten    --     21.0332                18.1526                32.9845

                     52                     53                     54
                      A                      A                      A
 Frequencies --   3378.6760              3510.8449              3528.6907
 Red. masses --      1.0561                 1.0731                 1.0844
 Frc consts  --      7.1029                 7.7933                 7.9558
 IR Inten    --     16.6980                 0.8554                 0.6197

 - Thermochemistry -
 -------------------
 Temperature   298.150 Kelvin.  Pressure   1.00000 Atm.
 Atom     1 has atomic number  7 and mass  14.00307

 Molecular mass:   129.10145 amu.
 Principal axes and moments of inertia in atomic units:
                           1         2         3
     Eigenvalues --   395.182713083.389963329.49985
           X            0.99999   0.00189  -0.00281
           Y           -0.00194   0.99980  -0.02000
           Z            0.00277   0.02000   0.99980
 This molecule is an asymmetric top.
 Rotational symmetry number  1.
 Rotational temperatures (Kelvin)      0.21917     0.02809     0.02601
 Rotational constants (GHZ):           4.56685     0.58531     0.54205
 Zero-point vibrational energy     445677.6 (Joules/Mol)
                                  106.51949 (Kcal/Mol)
 Warning -- explicit consideration of  13 degrees of freedom as
           vibrations may cause significant error
 Vibrational temperatures:     61.45    85.37   119.52   151.88   203.15
          (Kelvin)            259.38   316.73   432.99   492.36   603.71
                              684.21   709.51   826.61  1098.74  1116.34
                             1166.92  1231.16  1279.90  1394.11  1416.53
                             1453.77  1500.63  1559.83  1573.36  1590.69
                             1602.24  1665.26  1709.14  1727.51  1763.94
                             1819.89  1854.67  1928.54  1948.39  2007.87
                             2086.91  2137.29  2147.39  2153.33  2157.38
                             2173.36  2389.78  2398.68  4152.09  4166.45
                             4376.09  4389.25  4443.09  4451.65  4572.74
                             4664.12  4861.16  5051.32  5077.00

 Zero-point correction=                           0.169750 (Hartree/Particle)
 Thermal correction to Energy=                    0.180020
 Thermal correction to Enthalpy=                  0.180964
 Thermal correction to Gibbs Free Energy=         0.132742
 Sum of electronic and zero-point Energies=           -432.510930
 Sum of electronic and thermal Energies=              -432.500659
 Sum of electronic and thermal Enthalpies=            -432.499715
 Sum of electronic and thermal Free Energies=         -432.547937

                     E (Thermal)             CV                S
                      KCal/Mol        Cal/Mol-Kelvin    Cal/Mol-Kelvin
 Total                  112.964             35.572            101.492
 Electronic               0.000              0.000              0.000
 Translational            0.889              2.981             40.479
 Rotational               0.889              2.981             29.785
 Vibrational            111.187             29.611             31.228
 Vibration     1          0.595              1.980              5.129
 Vibration     2          0.597              1.974              4.479
 Vibration     3          0.600              1.961              3.817
 Vibration     4          0.605              1.945              3.349
 Vibration     5          0.615              1.912              2.788
 Vibration     6          0.629              1.866              2.326
 Vibration     7          0.647              1.810              1.958
 Vibration     8          0.693              1.672              1.412
 Vibration     9          0.721              1.591              1.202
 Vibration    10          0.782              1.428              0.893
 Vibration    11          0.832              1.304              0.722
 Vibration    12          0.849              1.265              0.676
 Vibration    13          0.931              1.086              0.496

 Optimization completed.
    -- Stationary point found.
 Normal termination of Gaussian 16 at Tue Jun  1 16:48:35 2021.
