 Gaussian 16, Revision A.03,
 Gaussian 16:  ES64L-G16RevA.03 25-Dec-2016

 -----------------------------
 # opt freq b3lyp/6-31g(2df,p)
 -----------------------------

 -------------------
 Title Card Required
 -------------------
 Symbolic Z-matrix:
 Charge =  0 Multiplicity = 1

 SCF Done:  E(RB3LYP) =  -448.744332890     A.U. after   14 cycles
 SCF Done:  E(RB3LYP) =  -448.747134341     A.U. after   14 cycles
 SCF Done:  E(RB3LYP) =  -448.749786097     A.U. after   13 cycles
 SCF Done:  E(RB3LYP) =  -448.751125857     A.U. after   14 cycles
 SCF Done:  E(RB3LYP) =  -448.752387392     A.U. after   16 cycles
 SCF Done:  E(RB3LYP) =  -448.753319004     A.U. after   13 cycles
 SCF Done:  E(RB3LYP) =  -448.753744110     A.U. after   13 cycles
 SCF Done:  E(RB3LYP) =  -448.754025397     A.U. after   12 cycles
 SCF Done:  E(RB3LYP) =  -448.754125367     A.U. after   12 cycles
 SCF Done:  E(RB3LYP) =  -448.754459606     A.U. after   14 cycles
 SCF Done:  E(RB3LYP) =  -448.753023459     A.U. after   16 cycles
 SCF Done:  E(RB3LYP) =  -448.755027676     A.U. after   13 cycles
 SCF Done:  E(RB3LYP) =  -448.755632686     A.U. after   15 cycles
 SCF Done:  E(RB3LYP) =  -448.756215657     A.U. after   13 cycles
 SCF Done:  E(RB3LYP) =  -448.756307315     A.U. after   13 cycles
 SCF Done:  E(RB3LYP) =  -448.756323375     A.U. after   11 cycles
 SCF Done:  E(RB3LYP) =  -448.756326388     A.U. after    9 cycles
 SCF Done:  E(RB3LYP) =  -448.756327347     A.U. after    9 cycles
 SCF Done:  E(RB3LYP) =  -448.756327432     A.U. after    7 cycles
 Optimization completed.
    -- Stationary point found.
 Normal termination of Gaussian 16 at Mon May 31 17:24:47 2021.

 ----------------------------------------------------------------------
 #N Geom=AllCheck Guess=TCheck SCRF=Check GenChk RB3LYP/6-31G(2df,p) Fr
 eq
 ----------------------------------------------------------------------

 Structure from the checkpoint file:  "NdNCCpNpCNdNN.chk"
 -------------------
 Title Card Required
 -------------------
 Charge =  0 Multiplicity = 1

                         Standard orientation:
 ---------------------------------------------------------------------
 Center     Atomic      Atomic             Coordinates (Angstroms)
 Number     Number       Type             X           Y           Z
 ---------------------------------------------------------------------
      1          7           0       -3.862301   -0.327841   -0.520907
      2          7           0       -2.945300    0.344267   -0.023623
      3          6           0       -1.836181   -0.477129    0.470178
      4          6           0       -0.509659    0.054512   -0.119262
      5          7           0       -0.229987    1.454539    0.194001
      6          6           0        0.653306   -0.830596    0.348699
      7          7           0        1.864735   -0.523193   -0.403605
      8          7           0        2.775960   -0.091772    0.325985
      9          7           0        3.932654    0.142642   -0.349604
     10          1           0       -4.579020    0.345487   -0.846068
     11          1           0       -2.005835   -1.535239    0.233259
     12          1           0       -1.814924   -0.349196    1.561305
     13          1           0       -0.572493   -0.029707   -1.211967
     14          1           0       -0.074465    1.555027    1.194768
     15          1           0       -1.053348    2.009400   -0.021904
     16          1           0        0.400798   -1.880313    0.155587
     17          1           0        0.816854   -0.707138    1.429197
     18          1           0        4.477915    0.859930    0.105646
     19          1           0        3.809391    0.260527   -1.353249
 ---------------------------------------------------------------------

 SCF Done:  E(RB3LYP) =  -448.756327432     A.U. after    1 cycles

 The electronic state is 1-A.
 Alpha  occ. eigenvalues --  -14.39984 -14.38671 -14.37582 -14.36026 -14.34659
 Alpha  occ. eigenvalues --  -14.30524 -10.21784 -10.20872 -10.20619  -1.05567
 Alpha  occ. eigenvalues --   -1.03115  -0.90013  -0.87681  -0.77615  -0.73813
 Alpha  occ. eigenvalues --   -0.64668  -0.59232  -0.57932  -0.53059  -0.50721
 Alpha  occ. eigenvalues --   -0.49867  -0.48132  -0.44620  -0.44334  -0.42506
 Alpha  occ. eigenvalues --   -0.40693  -0.39427  -0.37543  -0.36444  -0.34684
 Alpha  occ. eigenvalues --   -0.33953  -0.24925  -0.24118  -0.23525  -0.22781
 Alpha virt. eigenvalues --   -0.04506  -0.00935   0.08699   0.09277   0.10646
 Alpha virt. eigenvalues --    0.12171   0.13203   0.14446   0.15192   0.15993
 Alpha virt. eigenvalues --    0.16803   0.18386   0.20122   0.22126   0.23037

 Mulliken charges:
               1
     1  N   -0.271249
     2  N   -0.126247
     3  C   -0.118323
     4  C    0.019430
     5  N   -0.506633
     6  C   -0.123304
     7  N   -0.153981
     8  N   -0.054635
     9  N   -0.381376
    10  H    0.243713
    11  H    0.104287
    12  H    0.109583
    13  H    0.100361
    14  H    0.220053
    15  H    0.235201
    16  H    0.109010
    17  H    0.093321
    18  H    0.260682
    19  H    0.240108
 Sum of Mulliken charges =  -0.00000

 Dipole moment (field-independent basis, Debye):
    X=             -0.0101    Y=              1.1867    Z=              0.4766  Tot=              1.2789
 Quadrupole moment (field-independent basis, Debye-Ang):
   XX=            -46.7363   YY=            -54.4671   ZZ=            -51.6217
   XY=              1.8869   XZ=             -1.4287   YZ=             -0.5753

  Exact polarizability: 120.376   8.622  63.260   5.110   0.321  62.393
 Approx polarizability: 153.285  17.909  96.682  13.800   4.485 100.288

                      1                      2                      3
                      A                      A                      A
 Frequencies --     48.0808                57.1073               101.3364
 Red. masses --      4.9408                 5.0963                 3.9985
 Frc consts  --      0.0067                 0.0098                 0.0242
 IR Inten    --      0.2329                 1.3812                 2.8857

                      4                      5                      6
                      A                      A                      A
 Frequencies --    112.2103               164.2378               240.0056
 Red. masses --      4.0276                 3.5609                 2.4852
 Frc consts  --      0.0299                 0.0566                 0.0843
 IR Inten    --      0.8233                 3.4323                13.0554

                      7                      8                      9
                      A                      A                      A
 Frequencies --    272.9330               296.1737               338.1558
 Red. masses --      1.2337                 4.3170                 5.0914
 Frc consts  --      0.0541                 0.2231                 0.3430
 IR Inten    --     20.9430                 4.8506                 7.8757

                     10                     11                     12
                      A                      A                      A
 Frequencies --    371.8998               446.8807               503.1792
 Red. masses --      2.4615                 2.5435                 2.4981
 Frc consts  --      0.2006                 0.2993                 0.3727
 IR Inten    --     40.7650                 3.4030                21.8117

                     13                     14                     15
                      A                      A                      A
 Frequencies --    518.2337               584.0691               647.6600
 Red. masses --      1.3370                 2.4917                 2.5818
 Frc consts  --      0.2116                 0.5008                 0.6381
 IR Inten    --     88.4721                47.7892               103.0660

                     16                     17                     18
                      A                      A                      A
 Frequencies --    691.8368               848.5573               887.6082
 Red. masses --      1.7165                 1.9301                 2.1929
 Frc consts  --      0.4841                 0.8188                 1.0179
 IR Inten    --    190.3699                74.1087                 8.5599

                     19                     20                     21
                      A                      A                      A
 Frequencies --    910.7055               934.1891               985.1018
 Red. masses --      1.4163                 1.6774                 2.5877
 Frc consts  --      0.6921                 0.8625                 1.4796
 IR Inten    --    111.8261                45.0753                12.2726

                     22                     23                     24
                      A                      A                      A
 Frequencies --   1008.1662              1049.9799              1102.9048
 Red. masses --      1.9107                 2.4213                 2.2541
 Frc consts  --      1.1442                 1.5727                 1.6155
 IR Inten    --      0.3594                14.3989                16.9140

                     25                     26                     27
                      A                      A                      A
 Frequencies --   1150.1470              1163.0441              1220.1127
 Red. masses --      2.6051                 2.2987                 1.3709
 Frc consts  --      2.0304                 1.8320                 1.2024
 IR Inten    --     43.2423                 2.1182                26.0665

                     28                     29                     30
                      A                      A                      A
 Frequencies --   1235.9858              1288.7141              1315.4098
 Red. masses --      1.3295                 1.2259                 1.6881
 Frc consts  --      1.1966                 1.1996                 1.7210
 IR Inten    --      6.8445                22.7740                13.8772

                     31                     32                     33
                      A                      A                      A
 Frequencies --   1326.0169              1353.5079              1374.2138
 Red. masses --      1.3875                 1.3426                 1.3772
 Frc consts  --      1.4374                 1.4491                 1.5324
 IR Inten    --     20.3490                 1.9157                 0.6463

                     34                     35                     36
                      A                      A                      A
 Frequencies --   1417.6541              1463.5144              1479.3550
 Red. masses --      1.3909                 1.0952                 1.0990
 Frc consts  --      1.6470                 1.3821                 1.4171
 IR Inten    --      2.9018                 2.5372                 5.1698

                     37                     38                     39
                      A                      A                      A
 Frequencies --   1495.1635              1618.7692              1637.0743
 Red. masses --      1.3008                 1.3258                 3.8011
 Frc consts  --      1.7133                 2.0469                 6.0021
 IR Inten    --     27.4945                79.3266                57.7229

                     40                     41                     42
                      A                      A                      A
 Frequencies --   1656.1283              1662.6136              2996.6915
 Red. masses --      6.6270                 1.1511                 1.0596
 Frc consts  --     10.7091                 1.8748                 5.6065
 IR Inten    --      3.6562                27.4374                21.4442

                     43                     44                     45
                      A                      A                      A
 Frequencies --   3004.1236              3030.1117              3056.0523
 Red. masses --      1.0568                 1.0824                 1.1029
 Frc consts  --      5.6191                 5.8552                 6.0686
 IR Inten    --     23.9677                19.6598                 3.6625

                     46                     47                     48
                      A                      A                      A
 Frequencies --   3068.6579              3240.9608              3463.6307
 Red. masses --      1.1043                 1.0737                 1.0492
 Frc consts  --      6.1266                 6.6451                 7.4157
 IR Inten    --     47.2860                32.2633                 2.4953

                     49                     50                     51
                      A                      A                      A
 Frequencies --   3476.3449              3560.3278              3651.2153
 Red. masses --      1.0501                 1.0903                 1.0944
 Frc consts  --      7.4770                 8.1431                 8.5964
 IR Inten    --      0.9110                 2.7585                28.2155

 - Thermochemistry -
 -------------------
 Temperature   298.150 Kelvin.  Pressure   1.00000 Atm.
 Atom     1 has atomic number  7 and mass  14.00307

 Molecular mass:   130.09669 amu.
 Principal axes and moments of inertia in atomic units:
                           1         2         3
     Eigenvalues --   307.947363009.569683145.03421
           X            0.99999   0.00442  -0.00292
           Y           -0.00449   0.99970  -0.02399
           Z            0.00282   0.02401   0.99971
 This molecule is an asymmetric top.
 Rotational symmetry number  1.
 Rotational temperatures (Kelvin)      0.28126     0.02878     0.02754
 Rotational constants (GHZ):           5.86055     0.59967     0.57384
 Zero-point vibrational energy     415862.3 (Joules/Mol)
                                   99.39348 (Kcal/Mol)
 Warning -- explicit consideration of  14 degrees of freedom as
           vibrations may cause significant error
 Vibrational temperatures:     69.18    82.16   145.80   161.45   236.30
          (Kelvin)            345.31   392.69   426.13   486.53   535.08
                              642.96   723.96   745.62   840.35   931.84
                              995.40  1220.88  1277.07  1310.30  1344.09
                             1417.34  1450.53  1510.69  1586.83  1654.80
                             1673.36  1755.47  1778.31  1854.17  1892.58
                             1907.84  1947.40  1977.19  2039.69  2105.67
                             2128.46  2151.21  2329.05  2355.38  2382.80
                             2392.13  4311.57  4322.26  4359.65  4396.98
                             4415.11  4663.02  4983.39  5001.68  5122.52
                             5253.28

 Zero-point correction=                           0.158394 (Hartree/Particle)
 Thermal correction to Energy=                    0.168665
 Thermal correction to Enthalpy=                  0.169609
 Thermal correction to Gibbs Free Energy=         0.122004
 Sum of electronic and zero-point Energies=           -448.597934
 Sum of electronic and thermal Energies=              -448.587663
 Sum of electronic and thermal Enthalpies=            -448.586719
 Sum of electronic and thermal Free Energies=         -448.634323

                     E (Thermal)             CV                S
                      KCal/Mol        Cal/Mol-Kelvin    Cal/Mol-Kelvin
 Total                  105.839             36.098            100.193
 Electronic               0.000              0.000              0.000
 Translational            0.889              2.981             40.502
 Rotational               0.889              2.981             29.457
 Vibrational            104.061             30.137             30.234
 Vibration     1          0.595              1.978              4.895
 Vibration     2          0.596              1.975              4.555
 Vibration     3          0.604              1.948              3.428
 Vibration     4          0.607              1.939              3.230
 Vibration     5          0.623              1.886              2.500
 Vibration     6          0.657              1.779              1.803
 Vibration     7          0.676              1.723              1.578
 Vibration     8          0.690              1.681              1.438
 Vibration     9          0.718              1.599              1.221
 Vibration    10          0.744              1.530              1.072
 Vibration    11          0.806              1.368              0.805
 Vibration    12          0.858              1.243              0.650
 Vibration    13          0.873              1.210              0.614
 Vibration    14          0.941              1.066              0.478

 Optimization completed.
    -- Stationary point found.
 Normal termination of Gaussian 16 at Mon May 31 17:48:34 2021.
