 Gaussian 16, Revision A.03,
 Gaussian 16:  ES64L-G16RevA.03 25-Dec-2016

 -----------------------------
 # opt freq b3lyp/6-31g(2df,p)
 -----------------------------

 -------------------
 Title Card Required
 -------------------
 Symbolic Z-matrix:
 Charge =  0 Multiplicity = 1

 SCF Done:  E(RB3LYP) =  -436.069959205     A.U. after   14 cycles
 SCF Done:  E(RB3LYP) =  -436.075841133     A.U. after   13 cycles
 SCF Done:  E(RB3LYP) =  -436.076518550     A.U. after   11 cycles
 SCF Done:  E(RB3LYP) =  -436.076564574     A.U. after    9 cycles
 SCF Done:  E(RB3LYP) =  -436.076573627     A.U. after    9 cycles
 SCF Done:  E(RB3LYP) =  -436.076575802     A.U. after    8 cycles
 Optimization completed.
    -- Stationary point found.
 Normal termination of Gaussian 16 at Mon May 31 14:55:39 2021.

 ----------------------------------------------------------------------
 #N Geom=AllCheck Guess=TCheck SCRF=Check GenChk RB3LYP/6-31G(2df,p) Fr
 eq
 ----------------------------------------------------------------------

 Structure from the checkpoint file:  "NdNNdCCpdNpCF.chk"
 -------------------
 Title Card Required
 -------------------
 Charge =  0 Multiplicity = 1

                         Standard orientation:
 ---------------------------------------------------------------------
 Center     Atomic      Atomic             Coordinates (Angstroms)
 Number     Number       Type             X           Y           Z
 ---------------------------------------------------------------------
      1          7           0        3.615095    0.178790   -0.000002
      2          7           0        2.596413   -0.527253    0.000004
      3          7           0        1.441066    0.301571    0.000002
      4          6           0        0.387117   -0.420956    0.000001
      5          6           0       -0.959139    0.215234   -0.000000
      6          7           0       -1.166566    1.468023    0.000000
      7          6           0       -2.110749   -0.766409   -0.000000
      8          9           0       -3.315065   -0.137829   -0.000001
      9          1           0        4.403918   -0.486563   -0.000013
     10          1           0        0.461836   -1.513963   -0.000000
     11          1           0       -0.265794    1.958779    0.000001
     12          1           0       -2.034905   -1.416460    0.885880
     13          1           0       -2.034904   -1.416461   -0.885880
 ---------------------------------------------------------------------

 SCF Done:  E(RB3LYP) =  -436.076575802     A.U. after    1 cycles

 The electronic state is 1-A.
 Alpha  occ. eigenvalues --  -24.68532 -14.43044 -14.39222 -14.38158 -14.33600
 Alpha  occ. eigenvalues --  -10.27901 -10.26560 -10.25640  -1.20494  -1.07955
 Alpha  occ. eigenvalues --   -0.95446  -0.91157  -0.76302  -0.71406  -0.62243
 Alpha  occ. eigenvalues --   -0.56488  -0.54214  -0.51093  -0.50861  -0.48074
 Alpha  occ. eigenvalues --   -0.46207  -0.45541  -0.45219  -0.38399  -0.35791
 Alpha  occ. eigenvalues --   -0.34485  -0.33132  -0.30616  -0.28433  -0.25481
 Alpha virt. eigenvalues --   -0.10505  -0.03126   0.04246   0.08222   0.09433
 Alpha virt. eigenvalues --    0.09519   0.12498   0.15067   0.16444   0.19073
 Alpha virt. eigenvalues --    0.24897   0.27000   0.31997   0.34134   0.37813

 Mulliken charges:
               1
     1  N   -0.230299
     2  N   -0.078965
     3  N   -0.145522
     4  C    0.030856
     5  C    0.228282
     6  N   -0.438168
     7  C   -0.122202
     8  F   -0.112792
     9  H    0.259882
    10  H    0.115857
    11  H    0.249252
    12  H    0.121910
    13  H    0.121910
 Sum of Mulliken charges =  -0.00000

 Dipole moment (field-independent basis, Debye):
    X=              1.8502    Y=             -3.4679    Z=             -0.0000  Tot=              3.9306
 Quadrupole moment (field-independent basis, Debye-Ang):
   XX=            -47.9930   YY=            -45.7624   ZZ=            -43.8627
   XY=              0.8706   XZ=             -0.0001   YZ=              0.0000

  Exact polarizability: 103.765   0.068  59.781  -0.000   0.000  34.330
 Approx polarizability: 148.318   2.368 100.412  -0.000   0.000  53.674

                      1                      2                      3
                      A                      A                      A
 Frequencies --     40.5371                80.7253               120.4509
 Red. masses --      9.6972                 4.4639                 2.7460
 Frc consts  --      0.0094                 0.0171                 0.0235
 IR Inten    --      0.5155                 8.7469                 9.3961

                      4                      5                      6
                      A                      A                      A
 Frequencies --    123.6318               217.2749               268.6180
 Red. masses --      6.2182                 5.0229                 6.7988
 Frc consts  --      0.0560                 0.1397                 0.2890
 IR Inten    --      0.9720                 0.3789                 0.4449

                      7                      8                      9
                      A                      A                      A
 Frequencies --    348.8695               385.4361               521.1645
 Red. masses --     10.3299                 4.9752                 2.3877
 Frc consts  --      0.7408                 0.4355                 0.3821
 IR Inten    --      1.5062                14.0242                 0.9794

                     10                     11                     12
                      A                      A                      A
 Frequencies --    682.7805               709.6526               877.0635
 Red. masses --      7.2770                 4.4930                 1.2400
 Frc consts  --      1.9988                 1.3332                 0.5620
 IR Inten    --     14.0110                11.7650                32.2378

                     13                     14                     15
                      A                      A                      A
 Frequencies --    892.7793               975.2585               983.9825
 Red. masses --      5.3602                 3.9248                 1.2914
 Frc consts  --      2.5172                 2.1994                 0.7367
 IR Inten    --     56.2091                57.1774                 3.7187

                     16                     17                     18
                      A                      A                      A
 Frequencies --   1053.5557              1059.5073              1072.5399
 Red. masses --      2.6910                 1.6504                 1.3943
 Frc consts  --      1.7598                 1.0915                 0.9450
 IR Inten    --     44.5395                10.5465                53.8872

                     19                     20                     21
                      A                      A                      A
 Frequencies --   1160.7358              1275.8741              1305.5283
 Red. masses --      4.3304                 1.0715                 1.3365
 Frc consts  --      3.4375                 1.0277                 1.3421
 IR Inten    --    130.5834                 0.3700               102.6484

                     22                     23                     24
                      A                      A                      A
 Frequencies --   1373.5109              1446.1314              1459.7379
 Red. masses --      1.4566                 1.5787                 1.2919
 Frc consts  --      1.6191                 1.9452                 1.6219
 IR Inten    --     17.7972                 1.9744                26.1781

                     25                     26                     27
                      A                      A                      A
 Frequencies --   1493.9418              1604.8671              1684.7675
 Red. masses --      1.1408                12.5536                10.1673
 Frc consts  --      1.5001                19.0501                17.0034
 IR Inten    --      5.1967                76.1570                 8.4847

                     28                     29                     30
                      A                      A                      A
 Frequencies --   1739.1350              2985.6603              3017.8970
 Red. masses --      7.9130                 1.0556                 1.1040
 Frc consts  --     14.1012                 5.5440                 5.9243
 IR Inten    --      5.7019                19.7923                26.2514

                     31                     32                     33
                      A                      A                      A
 Frequencies --   3069.4150              3323.5873              3421.7880
 Red. masses --      1.0871                 1.0732                 1.0734
 Frc consts  --      6.0346                 6.9846                 7.4052
 IR Inten    --     19.7940                 0.2730                 3.8032

 - Thermochemistry -
 -------------------
 Temperature   298.150 Kelvin.  Pressure   1.00000 Atm.
 Atom     1 has atomic number  7 and mass  14.00307

 Molecular mass:   116.04982 amu.
 Principal axes and moments of inertia in atomic units:
                           1         2         3
     Eigenvalues --   206.605672250.730972446.03888
           X            0.99999   0.00322  -0.00000
           Y           -0.00322   0.99999   0.00000
           Z            0.00000  -0.00000   1.00000
 This molecule is an asymmetric top.
 Rotational symmetry number  1.
 Rotational temperatures (Kelvin)      0.41922     0.03848     0.03541
 Rotational constants (GHZ):           8.73520     0.80185     0.73782
 Zero-point vibrational energy     243897.1 (Joules/Mol)
                                   58.29280 (Kcal/Mol)
 Warning -- explicit consideration of   9 degrees of freedom as
           vibrations may cause significant error
 Vibrational temperatures:     58.32   116.15   173.30   177.88   312.61
          (Kelvin)            386.48   501.95   554.56   749.84   982.37
                             1021.03  1261.90  1284.51  1403.18  1415.73
                             1515.83  1524.39  1543.15  1670.04  1835.70
                             1878.36  1976.18  2080.66  2100.24  2149.45
                             2309.05  2424.00  2502.23  4295.70  4342.08
                             4416.20  4781.90  4923.19

 Zero-point correction=                           0.092895 (Hartree/Particle)
 Thermal correction to Energy=                    0.101217
 Thermal correction to Enthalpy=                  0.102161
 Thermal correction to Gibbs Free Energy=         0.058529
 Sum of electronic and zero-point Energies=           -435.983680
 Sum of electronic and thermal Energies=              -435.975359
 Sum of electronic and thermal Enthalpies=            -435.974415
 Sum of electronic and thermal Free Energies=         -436.018047

                     E (Thermal)             CV                S
                      KCal/Mol        Cal/Mol-Kelvin    Cal/Mol-Kelvin
 Total                   63.515             27.082             91.832
 Electronic               0.000              0.000              0.000
 Translational            0.889              2.981             40.162
 Rotational               0.889              2.981             28.522
 Vibrational             61.737             21.120             23.149
 Vibration     1          0.594              1.981              5.233
 Vibration     2          0.600              1.962              3.873
 Vibration     3          0.609              1.932              3.093
 Vibration     4          0.610              1.929              3.043
 Vibration     5          0.646              1.815              1.982
 Vibration     6          0.673              1.731              1.605
 Vibration     7          0.726              1.578              1.171
 Vibration     8          0.754              1.501              1.018
 Vibration     9          0.876              1.203              0.607

                           ! Non-Optimized Parameters !
 Normal termination of Gaussian 16 at Mon May 31 15:08:08 2021.
