 Gaussian 16, Revision A.03,
 Gaussian 16:  ES64L-G16RevA.03 25-Dec-2016

 -----------------------------
 # opt freq b3lyp/6-31g(2df,p)
 -----------------------------

 -------------------
 Title Card Required
 -------------------
 Symbolic Z-matrix:
 Charge =  0 Multiplicity = 1

 SCF Done:  E(RB3LYP) =  -505.261081102     A.U. after   13 cycles
 SCF Done:  E(RB3LYP) =  -505.274003110     A.U. after   12 cycles
 SCF Done:  E(RB3LYP) =  -505.276713229     A.U. after   12 cycles
 SCF Done:  E(RB3LYP) =  -505.277686821     A.U. after   11 cycles
 SCF Done:  E(RB3LYP) =  -505.277987880     A.U. after   11 cycles
 SCF Done:  E(RB3LYP) =  -505.278575408     A.U. after   12 cycles
 SCF Done:  E(RB3LYP) =  -505.280277198     A.U. after   14 cycles
 SCF Done:  E(RB3LYP) =  -505.247191629     A.U. after   15 cycles
 SCF Done:  E(RB3LYP) =  -505.285021938     A.U. after   13 cycles
 SCF Done:  E(RB3LYP) =  -505.287151117     A.U. after   14 cycles
 SCF Done:  E(RB3LYP) =  -505.296297112     A.U. after   12 cycles
 SCF Done:  E(RB3LYP) =  -505.296461965     A.U. after   10 cycles
 SCF Done:  E(RB3LYP) =  -505.296592621     A.U. after   12 cycles
 SCF Done:  E(RB3LYP) =  -505.296612355     A.U. after   10 cycles
 SCF Done:  E(RB3LYP) =  -505.296624881     A.U. after   11 cycles
 SCF Done:  E(RB3LYP) =  -505.296626106     A.U. after    8 cycles
 SCF Done:  E(RB3LYP) =  -505.296626242     A.U. after    7 cycles
 SCF Done:  E(RB3LYP) =  -505.296626335     A.U. after    8 cycles
 SCF Done:  E(RB3LYP) =  -505.296626346     A.U. after    7 cycles
 Optimization completed.
    -- Stationary point found.
 Normal termination of Gaussian 16 at Mon May 31 21:11:53 2021.

 ----------------------------------------------------------------------
 #N Geom=AllCheck Guess=TCheck SCRF=Check GenChk RB3LYP/6-31G(2df,p) Fr
 eq
 ----------------------------------------------------------------------

 Structure from the checkpoint file:  "NdNNCCNNNCN.chk"
 -------------------
 Title Card Required
 -------------------
 Charge =  0 Multiplicity = 1

                         Standard orientation:
 ---------------------------------------------------------------------
 Center     Atomic      Atomic             Coordinates (Angstroms)
 Number     Number       Type             X           Y           Z
 ---------------------------------------------------------------------
      1          7           0        4.209513   -1.368111    0.452919
      2          7           0        3.317591   -0.914329   -0.306704
      3          7           0        3.059896    0.381983   -0.113315
      4          6           0        1.813152    0.908390   -0.628481
      5          6           0        0.621297    0.690429    0.311260
      6          7           0       -0.578363    1.284158   -0.271868
      7          7           0       -1.682577    1.146626    0.613059
      8          7           0       -2.275901   -0.148694    0.569858
      9          6           0       -3.428687   -0.256396   -0.318301
     10          7           0       -3.980855   -1.590826   -0.161970
     11          1           0        4.340378   -2.343017    0.164227
     12          1           0        3.469159    0.785784    0.727642
     13          1           0        1.638552    0.412764   -1.589105
     14          1           0        1.936891    1.977998   -0.825886
     15          1           0        0.801682    1.193332    1.267835
     16          1           0        0.510989   -0.384828    0.518690
     17          1           0       -0.782503    0.805540   -1.151568
     18          1           0       -2.359035    1.855838    0.333563
     19          1           0       -2.562809   -0.400909    1.510733
     20          1           0       -3.083095   -0.010179   -1.338284
     21          1           0       -4.227389    0.467213   -0.068048
     22          1           0       -3.341614   -2.276583   -0.551500
     23          1           0       -4.860905   -1.673142   -0.659016
 ---------------------------------------------------------------------

 SCF Done:  E(RB3LYP) =  -505.296626346     A.U. after    1 cycles

 The electronic state is 1-A.
 Alpha  occ. eigenvalues --  -14.40003 -14.36666 -14.36451 -14.33849 -14.33815
 Alpha  occ. eigenvalues --  -14.33006 -14.32011 -10.23972 -10.21871 -10.19969
 Alpha  occ. eigenvalues --   -1.05342  -1.00217  -0.91141  -0.89498  -0.85644
 Alpha  occ. eigenvalues --   -0.76208  -0.70491  -0.64929  -0.62902  -0.60768
 Alpha  occ. eigenvalues --   -0.53046  -0.52172  -0.51414  -0.50342  -0.47158
 Alpha  occ. eigenvalues --   -0.45553  -0.43658  -0.42624  -0.42532  -0.41382
 Alpha  occ. eigenvalues --   -0.40125  -0.38602  -0.36925  -0.35477  -0.25743
 Alpha  occ. eigenvalues --   -0.25610  -0.24085  -0.23612  -0.23385  -0.23025
 Alpha virt. eigenvalues --   -0.00527   0.07294   0.08049   0.09791   0.10097
 Alpha virt. eigenvalues --    0.12043   0.12651   0.13366   0.14595   0.15032
 Alpha virt. eigenvalues --    0.15944   0.16728   0.18082   0.18900   0.19999

 Mulliken charges:
               1
     1  N   -0.368355
     2  N   -0.056523
     3  N   -0.165876
     4  C   -0.164099
     5  C   -0.091140
     6  N   -0.263426
     7  N   -0.274157
     8  N   -0.244372
     9  C   -0.086294
    10  N   -0.507643
    11  H    0.238517
    12  H    0.229388
    13  H    0.121350
    14  H    0.120749
    15  H    0.106424
    16  H    0.104775
    17  H    0.205260
    18  H    0.223685
    19  H    0.234824
    20  H    0.083521
    21  H    0.085424
    22  H    0.235311
    23  H    0.232657
 Sum of Mulliken charges =  -0.00000

 Dipole moment (field-independent basis, Debye):
    X=             -3.0782    Y=              0.2531    Z=             -1.7067  Tot=              3.5288
 Quadrupole moment (field-independent basis, Debye-Ang):
   XX=            -60.5434   YY=            -58.8420   ZZ=            -60.4882
   XY=              1.9915   XZ=              4.5597   YZ=              2.7995

  Exact polarizability: 111.036  -8.849  91.200   5.947  -1.672  68.944
 Approx polarizability: 130.539 -16.415 138.506  10.533  -6.205 108.229

                      1                      2                      3
                      A                      A                      A
 Frequencies --     29.2412                45.5234                62.1939
 Red. masses --      5.0182                 3.3022                 3.6111
 Frc consts  --      0.0025                 0.0040                 0.0082
 IR Inten    --      0.6844                 0.4199                 0.4630

                      4                      5                      6
                      A                      A                      A
 Frequencies --     98.4501               107.2339               137.9426
 Red. masses --      2.2333                 2.7282                 2.9533
 Frc consts  --      0.0128                 0.0185                 0.0331
 IR Inten    --      2.2952                 0.3696                 6.5852

                      7                      8                      9
                      A                      A                      A
 Frequencies --    160.4738               218.9224               262.1179
 Red. masses --      2.7665                 4.6327                 1.4152
 Frc consts  --      0.0420                 0.1308                 0.0573
 IR Inten    --      2.4881                 3.8330                32.4750

                     10                     11                     12
                      A                      A                      A
 Frequencies --    293.9516               335.4561               366.9212
 Red. masses --      2.8106                 2.8144                 2.8350
 Frc consts  --      0.1431                 0.1866                 0.2249
 IR Inten    --      4.9050                14.8710                 4.1466

                     13                     14                     15
                      A                      A                      A
 Frequencies --    426.0886               528.2125               570.6172
 Red. masses --      4.2855                 3.2679                 2.8216
 Frc consts  --      0.4584                 0.5372                 0.5413
 IR Inten    --     20.5646                 5.2759                 6.3066

                     16                     17                     18
                      A                      A                      A
 Frequencies --    637.6926               672.3878               757.6985
 Red. masses --      1.6727                 2.2216                 2.0036
 Frc consts  --      0.4008                 0.5918                 0.6777
 IR Inten    --    121.2210                39.9541                40.3625

                     19                     20                     21
                      A                      A                      A
 Frequencies --    795.8964               823.8331               845.7932
 Red. masses --      1.2166                 1.9777                 1.2772
 Frc consts  --      0.4541                 0.7908                 0.5383
 IR Inten    --      6.0039                72.2664               156.4986

                     22                     23                     24
                      A                      A                      A
 Frequencies --    921.0943               924.6566               983.7961
 Red. masses --      1.2674                 1.2499                 1.4886
 Frc consts  --      0.6335                 0.6296                 0.8488
 IR Inten    --     54.9060                12.7077                 8.7344

                     25                     26                     27
                      A                      A                      A
 Frequencies --   1020.2552              1039.0523              1063.5694
 Red. masses --      2.0114                 2.3985                 3.3360
 Frc consts  --      1.2336                 1.5257                 2.2234
 IR Inten    --     30.0527                 3.4181                 8.2553

                     28                     29                     30
                      A                      A                      A
 Frequencies --   1075.6689              1111.3348              1163.9333
 Red. masses --      3.0083                 3.1776                 2.1287
 Frc consts  --      2.0508                 2.3123                 1.6991
 IR Inten    --     12.9331                63.9074                13.8722

                     31                     32                     33
                      A                      A                      A
 Frequencies --   1177.5586              1191.1240              1205.3021
 Red. masses --      2.3383                 2.6984                 2.0402
 Frc consts  --      1.9104                 2.2556                 1.7463
 IR Inten    --      9.3869                89.9685               119.5918

                     34                     35                     36
                      A                      A                      A
 Frequencies --   1232.6163              1262.9137              1321.9397
 Red. masses --      1.4665                 1.3467                 1.1338
 Frc consts  --      1.3128                 1.2655                 1.1674
 IR Inten    --      8.0604                23.7080                 8.0404

                     37                     38                     39
                      A                      A                      A
 Frequencies --   1323.4349              1326.0665              1403.4724
 Red. masses --      1.2407                 1.3102                 1.4029
 Frc consts  --      1.2804                 1.3574                 1.6281
 IR Inten    --      4.1202                 3.2116                 0.7644

                     40                     41                     42
                      A                      A                      A
 Frequencies --   1421.7247              1469.3151              1476.2533
 Red. masses --      1.2398                 1.2394                 1.1955
 Frc consts  --      1.4765                 1.5765                 1.5351
 IR Inten    --     19.8977                 4.8064                27.6002

                     43                     44                     45
                      A                      A                      A
 Frequencies --   1478.7756              1494.6158              1499.4355
 Red. masses --      1.4721                 1.1693                 1.3592
 Frc consts  --      1.8966                 1.5390                 1.8005
 IR Inten    --      1.1010                 4.6839                10.4245

                     46                     47                     48
                      A                      A                      A
 Frequencies --   1517.0894              1521.3047              1540.2554
 Red. masses --      1.1310                 1.1210                 1.1082
 Frc consts  --      1.5337                 1.5285                 1.5490
 IR Inten    --      1.3109                 3.9705                 2.3583

                     49                     50                     51
                      A                      A                      A
 Frequencies --   1579.1158              1645.4725              2920.2978
 Red. masses --      4.8747                 1.1002                 1.0555
 Frc consts  --      7.1618                 1.7551                 5.3036
 IR Inten    --    171.9995                29.7582                83.0696

                     52                     53                     54
                      A                      A                      A
 Frequencies --   2941.5113              2993.6245              3049.9189
 Red. masses --      1.1037                 1.0663                 1.0588
 Frc consts  --      5.6265                 5.6300                 5.8028
 IR Inten    --     84.8906                28.4722                33.0753

                     55                     56                     57
                      A                      A                      A
 Frequencies --   3064.6410              3100.5726              3390.9443
 Red. masses --      1.0938                 1.1059                 1.0746
 Frc consts  --      6.0528                 6.2639                 7.2800
 IR Inten    --     12.8210                24.1386                 0.5372

                     58                     59                     60
                      A                      A                      A
 Frequencies --   3399.8408              3439.0002              3471.9393
 Red. masses --      1.0727                 1.0744                 1.0739
 Frc consts  --      7.3057                 7.4865                 7.6269
 IR Inten    --      9.8098                 6.1358                 1.5640

                     61                     62                     63
                      A                      A                      A
 Frequencies --   3505.2494              3512.1942              3592.1171
 Red. masses --      1.0491                 1.0751                 1.0930
 Frc consts  --      7.5948                 7.8135                 8.3093
 IR Inten    --      0.3561                 1.8885                 1.1197

 - Thermochemistry -
 -------------------
 Temperature   298.150 Kelvin.  Pressure   1.00000 Atm.
 Atom     1 has atomic number  7 and mass  14.00307

 Molecular mass:   147.12324 amu.
 Principal axes and moments of inertia in atomic units:
                           1         2         3
     Eigenvalues --   687.808554305.068684745.52400
           X            0.99996   0.00744   0.00538
           Y           -0.00747   0.99996   0.00541
           Z           -0.00534  -0.00545   0.99997
 This molecule is an asymmetric top.
 Rotational symmetry number  1.
 Warning -- assumption of classical behavior for rotation
           may cause significant error
 Rotational temperatures (Kelvin)      0.12593     0.02012     0.01825
 Rotational constants (GHZ):           2.62390     0.41921     0.38030
 Zero-point vibrational energy     526055.7 (Joules/Mol)
                                  125.73033 (Kcal/Mol)
 Warning -- explicit consideration of  15 degrees of freedom as
           vibrations may cause significant error
 Vibrational temperatures:     42.07    65.50    89.48   141.65   154.29
          (Kelvin)            198.47   230.89   314.98   377.13   422.93
                              482.65   527.92   613.05   759.98   820.99
                              917.50   967.42  1090.16  1145.12  1185.31
                             1216.91  1325.25  1330.37  1415.46  1467.92
                             1494.96  1530.24  1547.65  1598.96  1674.64
                             1694.24  1713.76  1734.16  1773.46  1817.05
                             1901.98  1904.13  1907.91  2019.28  2045.54
                             2114.02  2124.00  2127.63  2150.42  2157.35
                             2182.75  2188.82  2216.08  2272.00  2367.47
                             4201.66  4232.18  4307.16  4388.15  4409.33
                             4461.03  4878.81  4891.61  4947.95  4995.35
                             5043.27  5053.26  5168.26

 Zero-point correction=                           0.200364 (Hartree/Particle)
 Thermal correction to Energy=                    0.212341
 Thermal correction to Enthalpy=                  0.213285
 Thermal correction to Gibbs Free Energy=         0.160342
 Sum of electronic and zero-point Energies=           -505.096262
 Sum of electronic and thermal Energies=              -505.084286
 Sum of electronic and thermal Enthalpies=            -505.083341
 Sum of electronic and thermal Free Energies=         -505.136284

                     E (Thermal)             CV                S
                      KCal/Mol        Cal/Mol-Kelvin    Cal/Mol-Kelvin
 Total                  133.246             41.526            111.427
 Electronic               0.000              0.000              0.000
 Translational            0.889              2.981             40.869
 Rotational               0.889              2.981             31.019
 Vibrational            131.468             35.565             39.539
 Vibration     1          0.593              1.984              5.880
 Vibration     2          0.595              1.979              5.003
 Vibration     3          0.597              1.972              4.386
 Vibration     4          0.604              1.950              3.485
 Vibration     5          0.606              1.943              3.318
 Vibration     6          0.614              1.915              2.832
 Vibration     7          0.622              1.891              2.544
 Vibration     8          0.647              1.812              1.968
 Vibration     9          0.669              1.742              1.648
 Vibration    10          0.689              1.685              1.451
 Vibration    11          0.717              1.605              1.234
 Vibration    12          0.740              1.540              1.093
 Vibration    13          0.788              1.413              0.872
 Vibration    14          0.883              1.188              0.591
 Vibration    15          0.927              1.095              0.503

 Optimization completed.
    -- Stationary point found.
 Normal termination of Gaussian 16 at Mon May 31 21:54:34 2021.
