 Gaussian 16, Revision A.03,
 Gaussian 16:  ES64L-G16RevA.03 25-Dec-2016

 -----------------------------
 # opt freq b3lyp/6-31g(2df,p)
 -----------------------------

 -------------------
 Title Card Required
 -------------------
 Symbolic Z-matrix:
 Charge =  0 Multiplicity = 1

 SCF Done:  E(RB3LYP) =  -563.923930095     A.U. after   15 cycles
 SCF Done:  E(RB3LYP) =  -563.944491464     A.U. after   14 cycles
 SCF Done:  E(RB3LYP) =  -563.957015426     A.U. after   14 cycles
 SCF Done:  E(RB3LYP) =  -563.964062485     A.U. after   14 cycles
 SCF Done:  E(RB3LYP) =  -563.967503775     A.U. after   14 cycles
 SCF Done:  E(RB3LYP) =  -563.968346009     A.U. after   13 cycles
 SCF Done:  E(RB3LYP) =  -563.968699037     A.U. after   12 cycles
 SCF Done:  E(RB3LYP) =  -563.968889637     A.U. after   12 cycles
 SCF Done:  E(RB3LYP) =  -563.968957799     A.U. after   12 cycles
 SCF Done:  E(RB3LYP) =  -563.968985157     A.U. after   10 cycles
 SCF Done:  E(RB3LYP) =  -563.968001441     A.U. after   14 cycles
 SCF Done:  E(RB3LYP) =  -563.971511471     A.U. after   13 cycles
 SCF Done:  E(RB3LYP) =  -563.971655171     A.U. after   13 cycles
 SCF Done:  E(RB3LYP) =  -563.971782968     A.U. after   13 cycles
 SCF Done:  E(RB3LYP) =  -563.971826303     A.U. after   11 cycles
 SCF Done:  E(RB3LYP) =  -563.971847021     A.U. after   12 cycles
 SCF Done:  E(RB3LYP) =  -563.971855764     A.U. after   10 cycles
 SCF Done:  E(RB3LYP) =  -563.971858683     A.U. after    9 cycles
 SCF Done:  E(RB3LYP) =  -563.971859243     A.U. after    8 cycles
 Optimization completed.
    -- Stationary point found.
 Normal termination of Gaussian 16 at Tue Jun  1 08:44:11 2021.

 ----------------------------------------------------------------------
 #N Geom=AllCheck Guess=TCheck SCRF=Check GenChk RB3LYP/6-31G(2df,p) Fr
 eq
 ----------------------------------------------------------------------

 Structure from the checkpoint file:  "NdNNNpCNpNNdCF.chk"
 -------------------
 Title Card Required
 -------------------
 Charge =  0 Multiplicity = 1

                         Standard orientation:
 ---------------------------------------------------------------------
 Center     Atomic      Atomic             Coordinates (Angstroms)
 Number     Number       Type             X           Y           Z
 ---------------------------------------------------------------------
      1          7           0       -2.089473   -2.439414    0.176716
      2          7           0       -1.334190   -1.596946   -0.350900
      3          7           0       -0.954031   -0.635888    0.533217
      4          7           0       -0.498381    0.550446   -0.040579
      5          6           0       -1.425755    1.676795    0.123049
      6          7           0       -2.679042    1.338144   -0.513294
      7          7           0        0.782507    0.913988    0.421818
      8          7           0        1.770520    0.295515   -0.327304
      9          6           0        2.857758    0.036830    0.244881
     10          9           0        3.864246   -0.470685   -0.456405
     11          1           0       -2.265965   -3.140498   -0.551018
     12          1           0       -1.591683   -0.548540    1.330132
     13          1           0       -0.889687    2.544665   -0.282041
     14          1           0       -1.634513    1.882537    1.190026
     15          1           0       -2.570247    1.325510   -1.522144
     16          1           0       -3.392555    2.018401   -0.279337
     17          1           0        0.869817    0.705453    1.421556
     18          1           0        3.119232    0.185965    1.295170
 ---------------------------------------------------------------------

 SCF Done:  E(RB3LYP) =  -563.971859243     A.U. after    1 cycles

 The electronic state is 1-A.
 Alpha  occ. eigenvalues --  -24.70905 -14.40536 -14.39652 -14.39282 -14.39068
 Alpha  occ. eigenvalues --  -14.36074 -14.34416 -14.32303 -10.29354 -10.24853
 Alpha  occ. eigenvalues --   -1.23351  -1.08307  -1.03539  -0.96040  -0.89228
 Alpha  occ. eigenvalues --   -0.85270  -0.75616  -0.66769  -0.63265  -0.63145
 Alpha  occ. eigenvalues --   -0.56480  -0.55957  -0.53539  -0.51343  -0.50312
 Alpha  occ. eigenvalues --   -0.47574  -0.46113  -0.44763  -0.41617  -0.41007
 Alpha  occ. eigenvalues --   -0.40453  -0.39879  -0.37002  -0.29857  -0.27434
 Alpha  occ. eigenvalues --   -0.25868  -0.25292  -0.24241  -0.23535
 Alpha virt. eigenvalues --   -0.01715   0.00854   0.07262   0.07580   0.10579
 Alpha virt. eigenvalues --    0.11313   0.12545   0.13362   0.14840   0.15987
 Alpha virt. eigenvalues --    0.17154   0.18538   0.20609   0.22190   0.24520

 Mulliken charges:
               1
     1  N   -0.340239
     2  N   -0.004509
     3  N   -0.169991
     4  N   -0.009825
     5  C   -0.100468
     6  N   -0.498804
     7  N   -0.239917
     8  N   -0.082920
     9  C    0.043290
    10  F   -0.066160
    11  H    0.248305
    12  H    0.224176
    13  H    0.117595
    14  H    0.085059
    15  H    0.243089
    16  H    0.236078
    17  H    0.215709
    18  H    0.099534
 Sum of Mulliken charges =  -0.00000

 Dipole moment (field-independent basis, Debye):
    X=             -1.2752    Y=              2.4520    Z=              2.2906  Tot=              3.5896
 Quadrupole moment (field-independent basis, Debye-Ang):
   XX=            -56.2926   YY=            -53.7030   ZZ=            -53.8949
   XY=             -4.8239   XZ=              7.8714   YZ=              2.1807

  Exact polarizability: 100.113   3.955  79.238   3.193   5.567  60.748
 Approx polarizability: 133.710   7.287 113.056   3.176   7.555  96.556

                      1                      2                      3
                      A                      A                      A
 Frequencies --     42.1004                64.6935                88.4132
 Red. masses --      7.0979                 4.5249                 3.5320
 Frc consts  --      0.0074                 0.0112                 0.0163
 IR Inten    --      0.3882                 1.6220                 3.1500

                      4                      5                      6
                      A                      A                      A
 Frequencies --    117.8827               130.4260               184.0185
 Red. masses --      2.5566                 3.4189                 3.9393
 Frc consts  --      0.0209                 0.0343                 0.0786
 IR Inten    --     24.4209                 5.2298                 1.8323

                      7                      8                      9
                      A                      A                      A
 Frequencies --    229.6852               272.3066               291.1923
 Red. masses --      2.4844                 1.7218                 3.6766
 Frc consts  --      0.0772                 0.0752                 0.1837
 IR Inten    --     16.7633                25.7569                 0.1670

                     10                     11                     12
                      A                      A                      A
 Frequencies --    329.2084               378.0454               409.7466
 Red. masses --      5.6298                 4.9002                 3.4746
 Frc consts  --      0.3595                 0.4126                 0.3437
 IR Inten    --      0.7398                 0.4615                13.1763

                     13                     14                     15
                      A                      A                      A
 Frequencies --    466.5182               596.0638               609.2848
 Red. masses --      3.4399                 3.5229                 2.0793
 Frc consts  --      0.4411                 0.7375                 0.4548
 IR Inten    --      2.1903                 6.4212                81.2687

                     16                     17                     18
                      A                      A                      A
 Frequencies --    641.2098               658.3256               813.8827
 Red. masses --      3.5667                 6.3428                 2.4771
 Frc consts  --      0.8640                 1.6196                 0.9668
 IR Inten    --    164.8433                 2.4869               105.0789

                     19                     20                     21
                      A                      A                      A
 Frequencies --    824.8996               921.3274               940.6441
 Red. masses --      1.2858                 1.5556                 1.2618
 Frc consts  --      0.5155                 0.7780                 0.6578
 IR Inten    --     79.0113                18.3821                46.1115

                     22                     23                     24
                      A                      A                      A
 Frequencies --    964.9329              1038.1922              1082.3787
 Red. masses --      2.3150                 1.7891                 5.8202
 Frc consts  --      1.2700                 1.1362                 4.0174
 IR Inten    --     19.4069                 3.0966               145.7637

                     25                     26                     27
                      A                      A                      A
 Frequencies --   1109.9510              1133.5808              1167.0122
 Red. masses --      3.0621                 2.5617                 3.1648
 Frc consts  --      2.2227                 1.9395                 2.5395
 IR Inten    --     17.0746                50.1990                 5.0883

                     28                     29                     30
                      A                      A                      A
 Frequencies --   1188.8459              1228.0789              1254.2171
 Red. masses --      3.3294                 3.7227                 1.5832
 Frc consts  --      2.7725                 3.3079                 1.4674
 IR Inten    --     52.7912               150.4525                12.7181

                     31                     32                     33
                      A                      A                      A
 Frequencies --   1332.7595              1370.5384              1432.7898
 Red. masses --      1.2830                 1.2788                 1.3610
 Frc consts  --      1.3427                 1.4153                 1.6462
 IR Inten    --      1.5230                25.7818                34.9531

                     34                     35                     36
                      A                      A                      A
 Frequencies --   1455.7702              1487.2637              1518.3180
 Red. masses --      1.3411                 1.3520                 1.0980
 Frc consts  --      1.6745                 1.7619                 1.4914
 IR Inten    --     14.0312                 5.6616                 0.9634

                     37                     38                     39
                      A                      A                      A
 Frequencies --   1537.6414              1597.3400              1648.2056
 Red. masses --      1.2019                 6.7934                 1.1005
 Frc consts  --      1.6743                10.2125                 1.7613
 IR Inten    --      0.1905                97.6524                30.8540

                     40                     41                     42
                      A                      A                      A
 Frequencies --   1749.0556              2928.5620              3028.2603
 Red. masses --      8.8355                 1.0702                 1.0900
 Frc consts  --     15.9253                 5.4080                 5.8895
 IR Inten    --     93.8621                75.0075                45.2680

                     43                     44                     45
                      A                      A                      A
 Frequencies --   3103.4275              3351.2730              3384.4346
 Red. masses --      1.0916                 1.0726                 1.0725
 Frc consts  --      6.1942                 7.0975                 7.2382
 IR Inten    --     23.8148                 9.9291                 1.0950

                     46                     47                     48
                      A                      A                      A
 Frequencies --   3386.0047              3514.1651              3604.4949
 Red. masses --      1.0750                 1.0493                 1.0933
 Frc consts  --      7.2615                 7.6345                 8.3693
 IR Inten    --      0.6654                 1.8906                 3.9238

 - Thermochemistry -
 -------------------
 Temperature   298.150 Kelvin.  Pressure   1.00000 Atm.
 Atom     1 has atomic number  7 and mass  14.00307

 Molecular mass:   149.08252 amu.
 Principal axes and moments of inertia in atomic units:
                           1         2         3
     Eigenvalues --   927.294082602.708833328.20118
           X            0.99985  -0.01076   0.01339
           Y            0.01069   0.99993   0.00496
           Z           -0.01344  -0.00481   0.99990
 This molecule is an asymmetric top.
 Rotational symmetry number  1.
 Warning -- assumption of classical behavior for rotation
           may cause significant error
 Rotational temperatures (Kelvin)      0.09341     0.03328     0.02602
 Rotational constants (GHZ):           1.94624     0.69341     0.54226
 Zero-point vibrational energy     362512.6 (Joules/Mol)
                                   86.64258 (Kcal/Mol)
 Warning -- explicit consideration of  15 degrees of freedom as
           vibrations may cause significant error
 Vibrational temperatures:     60.57    93.08   127.21   169.61   187.65
          (Kelvin)            264.76   330.47   391.79   418.96   473.66
                              543.92   589.53   671.22   857.60   876.62
                              922.56   947.18  1171.00  1186.85  1325.58
                             1353.38  1388.32  1493.73  1557.30  1596.97
                             1630.97  1679.07  1710.48  1766.93  1804.54
                             1917.54  1971.90  2061.46  2094.53  2139.84
                             2184.52  2212.32  2298.22  2371.40  2516.50
                             4213.55  4356.99  4465.14  4821.73  4869.45
                             4871.71  5056.10  5186.06

 Zero-point correction=                           0.138074 (Hartree/Particle)
 Thermal correction to Energy=                    0.149046
 Thermal correction to Enthalpy=                  0.149990
 Thermal correction to Gibbs Free Energy=         0.100229
 Sum of electronic and zero-point Energies=           -563.833785
 Sum of electronic and thermal Energies=              -563.822813
 Sum of electronic and thermal Enthalpies=            -563.821869
 Sum of electronic and thermal Free Energies=         -563.871630

                     E (Thermal)             CV                S
                      KCal/Mol        Cal/Mol-Kelvin    Cal/Mol-Kelvin
 Total                   93.528             37.921            104.731
 Electronic               0.000              0.000              0.000
 Translational            0.889              2.981             40.908
 Rotational               0.889              2.981             30.464
 Vibrational             91.750             31.959             33.359
 Vibration     1          0.595              1.980              5.158
 Vibration     2          0.597              1.971              4.309
 Vibration     3          0.601              1.957              3.695
 Vibration     4          0.608              1.934              3.135
 Vibration     5          0.612              1.923              2.940
 Vibration     6          0.631              1.862              2.287
 Vibration     7          0.652              1.796              1.881
 Vibration     8          0.675              1.724              1.582
 Vibration     9          0.687              1.690              1.467
 Vibration    10          0.712              1.617              1.264
 Vibration    11          0.748              1.517              1.047
 Vibration    12          0.774              1.449              0.928
 Vibration    13          0.824              1.324              0.747
 Vibration    14          0.954              1.040              0.456
 Vibration    15          0.968              1.012              0.434

 Optimization completed.
    -- Stationary point found.
 Normal termination of Gaussian 16 at Tue Jun  1 09:09:36 2021.
