 Gaussian 16, Revision A.03,
 Gaussian 16:  ES64L-G16RevA.03 25-Dec-2016

 -----------------------------
 # opt freq b3lyp/6-31g(2df,p)
 -----------------------------

 -------------------
 Title Card Required
 -------------------
 Symbolic Z-matrix:
 Charge =  0 Multiplicity = 1

 SCF Done:  E(RB3LYP) =  -448.680325501     A.U. after   13 cycles
 SCF Done:  E(RB3LYP) =  -448.704664106     A.U. after   15 cycles
 SCF Done:  E(RB3LYP) =  -448.712960172     A.U. after   14 cycles
 SCF Done:  E(RB3LYP) =  -448.715486991     A.U. after   14 cycles
 SCF Done:  E(RB3LYP) =  -448.716777127     A.U. after   13 cycles
 SCF Done:  E(RB3LYP) =  -448.718384099     A.U. after   15 cycles
 SCF Done:  E(RB3LYP) =  -448.718817010     A.U. after   16 cycles
 SCF Done:  E(RB3LYP) =  -448.720149570     A.U. after   13 cycles
 SCF Done:  E(RB3LYP) =  -448.720677652     A.U. after   13 cycles
 SCF Done:  E(RB3LYP) =  -448.720843714     A.U. after   13 cycles
 SCF Done:  E(RB3LYP) =  -448.720982085     A.U. after   13 cycles
 SCF Done:  E(RB3LYP) =  -448.720998624     A.U. after   10 cycles
 SCF Done:  E(RB3LYP) =  -448.721000433     A.U. after    7 cycles
 SCF Done:  E(RB3LYP) =  -448.721001120     A.U. after    8 cycles
 SCF Done:  E(RB3LYP) =  -448.721001368     A.U. after    8 cycles
 Optimization completed.
    -- Stationary point found.
 Normal termination of Gaussian 16 at Mon May 31 15:10:48 2021.

 ----------------------------------------------------------------------
 #N Geom=AllCheck Guess=TCheck SCRF=Check GenChk RB3LYP/6-31G(2df,p) Fr
 eq
 ----------------------------------------------------------------------

 Structure from the checkpoint file:  "NdNN1NC1CNCN.chk"
 -------------------
 Title Card Required
 -------------------
 Charge =  0 Multiplicity = 1

                         Standard orientation:
 ---------------------------------------------------------------------
 Center     Atomic      Atomic             Coordinates (Angstroms)
 Number     Number       Type             X           Y           Z
 ---------------------------------------------------------------------
      1          7           0       -1.032265    1.923191   -0.030021
      2          7           0       -1.986386    1.191802    0.290117
      3          7           0       -2.058968    0.057027   -0.518191
      4          7           0       -2.361144   -1.145336    0.259355
      5          6           0       -1.070150   -0.998548   -0.409235
      6          6           0        0.152016   -0.884678    0.468809
      7          7           0        1.239644   -0.262950   -0.267101
      8          6           0        2.499261   -0.233058    0.453459
      9          7           0        3.485728    0.422426   -0.392405
     10          1           0       -1.125282    2.765614    0.552108
     11          1           0       -2.997634   -1.687906   -0.325113
     12          1           0       -0.897668   -1.520701   -1.349448
     13          1           0        0.452416   -1.905429    0.743099
     14          1           0       -0.123630   -0.375247    1.406633
     15          1           0        0.977604    0.686408   -0.522044
     16          1           0        2.742171   -1.276858    0.726411
     17          1           0        2.450813    0.335341    1.401765
     18          1           0        3.664714   -0.153319   -1.209685
     19          1           0        4.363471    0.526672    0.105796
 ---------------------------------------------------------------------

 SCF Done:  E(RB3LYP) =  -448.721001368     A.U. after    1 cycles

 The electronic state is 1-A.
 Alpha  occ. eigenvalues --  -14.41709 -14.39633 -14.37142 -14.36653 -14.30836
 Alpha  occ. eigenvalues --  -14.30702 -10.25746 -10.22805 -10.21429  -1.09234
 Alpha  occ. eigenvalues --   -1.01001  -0.92014  -0.85299  -0.79148  -0.72541
 Alpha  occ. eigenvalues --   -0.64834  -0.62203  -0.57923  -0.53534  -0.50910
 Alpha  occ. eigenvalues --   -0.50386  -0.47698  -0.45440  -0.43452  -0.42560
 Alpha  occ. eigenvalues --   -0.40722  -0.38786  -0.38604  -0.36659  -0.35496
 Alpha  occ. eigenvalues --   -0.29748  -0.27379  -0.24497  -0.23990  -0.22411
 Alpha virt. eigenvalues --   -0.04547   0.08153   0.08391   0.08989   0.09962
 Alpha virt. eigenvalues --    0.12049   0.13645   0.14394   0.15252   0.16044
 Alpha virt. eigenvalues --    0.17151   0.18363   0.18909   0.20754   0.23092

 Mulliken charges:
               1
     1  N   -0.286488
     2  N   -0.030374
     3  N   -0.065488
     4  N   -0.298062
     5  C    0.008484
     6  C   -0.138907
     7  N   -0.292354
     8  C   -0.078243
     9  N   -0.509734
    10  H    0.256534
    11  H    0.253814
    12  H    0.115133
    13  H    0.111271
    14  H    0.099845
    15  H    0.241434
    16  H    0.078536
    17  H    0.080718
    18  H    0.228170
    19  H    0.225713
 Sum of Mulliken charges =  -0.00000

 Dipole moment (field-independent basis, Debye):
    X=              1.3538    Y=             -1.3724    Z=              0.3592  Tot=              1.9609
 Quadrupole moment (field-independent basis, Debye-Ang):
   XX=            -49.9809   YY=            -48.5038   ZZ=            -55.2130
   XY=             -0.0760   XZ=              4.2314   YZ=              4.6714

  Exact polarizability:  89.214   6.791  82.259  -0.901   4.060  58.818
 Approx polarizability: 116.447  14.335 126.788  -3.040   4.811  93.296

                      1                      2                      3
                      A                      A                      A
 Frequencies --     59.4173               101.6715               111.9963
 Red. masses --      4.4562                 2.0468                 4.0746
 Frc consts  --      0.0093                 0.0125                 0.0301
 IR Inten    --      0.1395                 3.4519                 0.6270

                      4                      5                      6
                      A                      A                      A
 Frequencies --    162.6233               178.8724               243.8779
 Red. masses --      4.1005                 5.2515                 2.9291
 Frc consts  --      0.0639                 0.0990                 0.1026
 IR Inten    --      3.7283                 5.0670                11.8016

                      7                      8                      9
                      A                      A                      A
 Frequencies --    274.2232               296.5276               361.4518
 Red. masses --      1.4768                 2.6039                 4.9464
 Frc consts  --      0.0654                 0.1349                 0.3807
 IR Inten    --     24.6635                12.4215                 3.1016

                     10                     11                     12
                      A                      A                      A
 Frequencies --    404.2952               500.5671               541.9005
 Red. masses --      3.5074                 3.2059                 3.7132
 Frc consts  --      0.3378                 0.4733                 0.6424
 IR Inten    --      4.2178                18.2231                 9.1622

                     13                     14                     15
                      A                      A                      A
 Frequencies --    654.4230               725.0270               842.3610
 Red. masses --      5.1939                 4.3500                 1.3355
 Frc consts  --      1.3106                 1.3473                 0.5583
 IR Inten    --     16.7170                12.3997                34.9225

                     16                     17                     18
                      A                      A                      A
 Frequencies --    856.3802               871.7093               953.6380
 Red. masses --      2.2884                 1.6207                 1.6803
 Frc consts  --      0.9888                 0.7256                 0.9003
 IR Inten    --     97.9729                98.7440                 4.2304

                     19                     20                     21
                      A                      A                      A
 Frequencies --    970.0584               991.2730              1008.4366
 Red. masses --      2.1437                 2.1927                 1.5428
 Frc consts  --      1.1885                 1.2694                 0.9244
 IR Inten    --     23.6585                68.0197                36.5749

                     22                     23                     24
                      A                      A                      A
 Frequencies --   1033.7553              1081.2218              1113.7144
 Red. masses --      1.7189                 2.7980                 1.4802
 Frc consts  --      1.0822                 1.9272                 1.0817
 IR Inten    --     11.4792                 1.7010                 6.7856

                     25                     26                     27
                      A                      A                      A
 Frequencies --   1147.0751              1162.9017              1200.3685
 Red. masses --      1.7378                 2.4857                 1.4101
 Frc consts  --      1.3472                 1.9806                 1.1971
 IR Inten    --     13.1098               106.0508                 1.8906

                     28                     29                     30
                      A                      A                      A
 Frequencies --   1230.7964              1248.3258              1285.3872
 Red. masses --      1.9657                 1.4383                 1.3575
 Frc consts  --      1.7544                 1.3205                 1.3215
 IR Inten    --     15.2472                 1.6441                25.4906

                     31                     32                     33
                      A                      A                      A
 Frequencies --   1324.8485              1334.5766              1354.7781
 Red. masses --      1.2605                 1.3027                 1.3181
 Frc consts  --      1.3035                 1.3670                 1.4254
 IR Inten    --      5.1252                53.7384                12.3887

                     34                     35                     36
                      A                      A                      A
 Frequencies --   1431.0580              1459.7578              1464.9520
 Red. masses --      1.4793                 1.5577                 1.4039
 Frc consts  --      1.7850                 1.9557                 1.7752
 IR Inten    --     20.1698                 7.6570                 2.9147

                     37                     38                     39
                      A                      A                      A
 Frequencies --   1502.5175              1504.0595              1537.9284
 Red. masses --      1.2579                 1.0958                 1.0859
 Frc consts  --      1.6732                 1.4605                 1.5133
 IR Inten    --     83.6815                31.7999                 1.1102

                     40                     41                     42
                      A                      A                      A
 Frequencies --   1600.3618              1642.6807              2915.0201
 Red. masses --     10.8387                 1.1010                 1.0539
 Frc consts  --     16.3554                 1.7504                 5.2762
 IR Inten    --     43.3377                30.4378                84.6197

                     43                     44                     45
                      A                      A                      A
 Frequencies --   2929.3786              2972.9519              3030.0863
 Red. masses --      1.1051                 1.0671                 1.0918
 Frc consts  --      5.5873                 5.5570                 5.9063
 IR Inten    --     83.6943                45.8966                24.9964

                     46                     47                     48
                      A                      A                      A
 Frequencies --   3125.8876              3357.1639              3456.5679
 Red. masses --      1.0886                 1.0743                 1.0770
 Frc consts  --      6.2672                 7.1335                 7.5813
 IR Inten    --     22.0853                 0.5678                 0.9855

                     49                     50                     51
                      A                      A                      A
 Frequencies --   3497.6555              3500.8681              3584.7315
 Red. masses --      1.0494                 1.0733                 1.0926
 Frc consts  --      7.5638                 7.7506                 8.2723
 IR Inten    --      0.3037                17.8188                 0.4982

 - Thermochemistry -
 -------------------
 Temperature   298.150 Kelvin.  Pressure   1.00000 Atm.
 Atom     1 has atomic number  7 and mass  14.00307

 Molecular mass:   130.09669 amu.
 Principal axes and moments of inertia in atomic units:
                           1         2         3
     Eigenvalues --   571.229492040.669772432.05772
           X            0.99997   0.00481   0.00537
           Y           -0.00489   0.99988   0.01440
           Z           -0.00530  -0.01442   0.99988
 This molecule is an asymmetric top.
 Rotational symmetry number  1.
 Warning -- assumption of classical behavior for rotation
           may cause significant error
 Rotational temperatures (Kelvin)      0.15163     0.04244     0.03561
 Rotational constants (GHZ):           3.15940     0.88439     0.74206
 Zero-point vibrational energy     419543.0 (Joules/Mol)
                                  100.27318 (Kcal/Mol)
 Warning -- explicit consideration of  12 degrees of freedom as
           vibrations may cause significant error
 Vibrational temperatures:     85.49   146.28   161.14   233.98   257.36
          (Kelvin)            350.89   394.55   426.64   520.05   581.69
                              720.20   779.67   941.57  1043.15  1211.97
                             1232.14  1254.20  1372.07  1395.70  1426.22
                             1450.92  1487.34  1555.64  1602.39  1650.39
                             1673.16  1727.06  1770.84  1796.06  1849.39
                             1906.16  1920.16  1949.22  2058.97  2100.27
                             2107.74  2161.79  2164.01  2212.74  2302.56
                             2363.45  4194.06  4214.72  4277.41  4359.62
                             4497.46  4830.21  4973.23  5032.35  5036.97
                             5157.63

 Zero-point correction=                           0.159795 (Hartree/Particle)
 Thermal correction to Energy=                    0.169381
 Thermal correction to Enthalpy=                  0.170325
 Thermal correction to Gibbs Free Energy=         0.124646
 Sum of electronic and zero-point Energies=           -448.561206
 Sum of electronic and thermal Energies=              -448.551621
 Sum of electronic and thermal Enthalpies=            -448.550677
 Sum of electronic and thermal Free Energies=         -448.596355

                     E (Thermal)             CV                S
                      KCal/Mol        Cal/Mol-Kelvin    Cal/Mol-Kelvin
 Total                  106.288             34.225             96.139
 Electronic               0.000              0.000              0.000
 Translational            0.889              2.981             40.502
 Rotational               0.889              2.981             29.429
 Vibrational            104.510             28.264             26.207
 Vibration     1          0.597              1.974              4.476
 Vibration     2          0.604              1.948              3.422
 Vibration     3          0.607              1.940              3.234
 Vibration     4          0.623              1.888              2.519
 Vibration     5          0.629              1.868              2.340
 Vibration     6          0.659              1.773              1.774
 Vibration     7          0.677              1.721              1.569
 Vibration     8          0.690              1.680              1.436
 Vibration     9          0.736              1.552              1.116
 Vibration    10          0.769              1.461              0.947
 Vibration    11          0.856              1.249              0.657
 Vibration    12          0.897              1.157              0.561

                           ! Non-Optimized Parameters !
 Normal termination of Gaussian 16 at Mon May 31 15:35:26 2021.
