 Gaussian 16, Revision A.03,
 Gaussian 16:  ES64L-G16RevA.03 25-Dec-2016

 -----------------------------
 # opt freq b3lyp/6-31g(2df,p)
 -----------------------------

 -------------------
 Title Card Required
 -------------------
 Symbolic Z-matrix:
 Charge =  0 Multiplicity = 1

 SCF Done:  E(RB3LYP) =  -467.385978504     A.U. after   14 cycles
 SCF Done:  E(RB3LYP) =  -467.403811570     A.U. after   14 cycles
 SCF Done:  E(RB3LYP) =  -467.410913751     A.U. after   14 cycles
 SCF Done:  E(RB3LYP) =  -467.414066978     A.U. after   13 cycles
 SCF Done:  E(RB3LYP) =  -467.416223899     A.U. after   13 cycles
 SCF Done:  E(RB3LYP) =  -467.418190094     A.U. after   14 cycles
 SCF Done:  E(RB3LYP) =  -467.419442494     A.U. after   13 cycles
 SCF Done:  E(RB3LYP) =  -467.420521679     A.U. after   13 cycles
 SCF Done:  E(RB3LYP) =  -467.421035241     A.U. after   13 cycles
 SCF Done:  E(RB3LYP) =  -467.421167411     A.U. after   13 cycles
 SCF Done:  E(RB3LYP) =  -467.422230826     A.U. after   11 cycles
 SCF Done:  E(RB3LYP) =  -467.422333945     A.U. after   12 cycles
 SCF Done:  E(RB3LYP) =  -467.422295763     A.U. after   13 cycles
 SCF Done:  E(RB3LYP) =  -467.422435293     A.U. after   13 cycles
 SCF Done:  E(RB3LYP) =  -467.422500670     A.U. after   11 cycles
 SCF Done:  E(RB3LYP) =  -467.422525748     A.U. after   12 cycles
 SCF Done:  E(RB3LYP) =  -467.422538667     A.U. after   12 cycles
 SCF Done:  E(RB3LYP) =  -467.422540755     A.U. after   10 cycles
 SCF Done:  E(RB3LYP) =  -467.422540874     A.U. after    8 cycles
 Optimization completed.
    -- Stationary point found.
 Normal termination of Gaussian 16 at Mon May 31 19:33:53 2021.

 ----------------------------------------------------------------------
 #N Geom=AllCheck Guess=TCheck SCRF=Check GenChk RB3LYP/6-31G(2df,p) Fr
 eq
 ----------------------------------------------------------------------

 Structure from the checkpoint file:  "NdNNCC1pNpNC1dO.chk"
 -------------------
 Title Card Required
 -------------------
 Charge =  0 Multiplicity = 1

                         Standard orientation:
 ---------------------------------------------------------------------
 Center     Atomic      Atomic             Coordinates (Angstroms)
 Number     Number       Type             X           Y           Z
 ---------------------------------------------------------------------
      1          7           0        2.986574    0.434279    0.183010
      2          7           0        2.083285   -0.425784    0.320937
      3          7           0        1.258625   -0.509049   -0.730670
      4          6           0        0.014291   -1.215465   -0.557348
      5          6           0       -1.128930   -0.418270    0.084085
      6          7           0       -2.331073   -1.141530    0.293866
      7          7           0       -0.744703    0.568182    1.185858
      8          6           0       -1.083635    1.061385   -0.023360
      9          8           0       -1.163003    2.055963   -0.686795
     10          1           0        3.562842    0.363049    1.027806
     11          1           0        1.340746    0.231913   -1.424311
     12          1           0        0.222885   -2.093359    0.066109
     13          1           0       -0.322398   -1.577778   -1.534349
     14          1           0       -2.195895   -2.145335    0.320505
     15          1           0       -3.051567   -0.912968   -0.377719
     16          1           0        0.168102    0.638193    1.625052
 ---------------------------------------------------------------------

 SCF Done:  E(RB3LYP) =  -467.422540874     A.U. after    1 cycles

 The electronic state is 1-A.
 Alpha  occ. eigenvalues --  -19.13732 -14.42225 -14.38846 -14.35323 -14.35155
 Alpha  occ. eigenvalues --  -14.33805 -10.29714 -10.27234 -10.24847  -1.07604
 Alpha  occ. eigenvalues --   -1.05733  -0.98743  -0.91585  -0.89414  -0.75150
 Alpha  occ. eigenvalues --   -0.66688  -0.65398  -0.57919  -0.54410  -0.51832
 Alpha  occ. eigenvalues --   -0.51472  -0.48307  -0.46785  -0.44547  -0.43864
 Alpha  occ. eigenvalues --   -0.41702  -0.40826  -0.39196  -0.36657  -0.29907
 Alpha  occ. eigenvalues --   -0.27900  -0.25452  -0.24903  -0.24709
 Alpha virt. eigenvalues --   -0.03103   0.00036   0.06595   0.07788   0.10149
 Alpha virt. eigenvalues --    0.10367   0.12205   0.13794   0.14229   0.15932
 Alpha virt. eigenvalues --    0.18997   0.21561   0.23518   0.24990   0.28304

 Mulliken charges:
               1
     1  N   -0.355613
     2  N   -0.065368
     3  N   -0.171583
     4  C   -0.229100
     5  C    0.139369
     6  N   -0.549231
     7  N   -0.369082
     8  C    0.411336
     9  O   -0.337732
    10  H    0.246652
    11  H    0.252014
    12  H    0.137332
    13  H    0.131401
    14  H    0.236079
    15  H    0.254683
    16  H    0.268844
 Sum of Mulliken charges =  -0.00000

 Dipole moment (field-independent basis, Debye):
    X=             -0.0951    Y=             -3.7323    Z=             -0.2845  Tot=              3.7444
 Quadrupole moment (field-independent basis, Debye-Ang):
   XX=            -52.2210   YY=            -54.6209   ZZ=            -50.6551
   XY=              5.6508   XZ=              6.1582   YZ=              4.0444

  Exact polarizability:  81.948  10.981  69.260  10.899  -0.604  58.577
 Approx polarizability: 113.203  19.713 111.348  20.821  -5.602 101.949

                      1                      2                      3
                      A                      A                      A
 Frequencies --     50.4320                84.0851               125.1064
 Red. masses --      5.6373                 5.2863                 3.8491
 Frc consts  --      0.0084                 0.0220                 0.0355
 IR Inten    --      0.5644                 0.7133                 9.9700

                      4                      5                      6
                      A                      A                      A
 Frequencies --    153.9007               170.7332               248.4919
 Red. masses --      1.1483                 4.8785                 4.0670
 Frc consts  --      0.0160                 0.0838                 0.1480
 IR Inten    --     19.9574                 3.3082                 4.3052

                      7                      8                      9
                      A                      A                      A
 Frequencies --    293.4741               349.0801               401.6896
 Red. masses --      4.3467                 2.7235                 3.9615
 Frc consts  --      0.2206                 0.1955                 0.3766
 IR Inten    --      5.6540                 0.4773                 6.2886

                     10                     11                     12
                      A                      A                      A
 Frequencies --    460.7888               518.7932               591.8247
 Red. masses --      2.0130                 2.6429                 3.1340
 Frc consts  --      0.2518                 0.4191                 0.6468
 IR Inten    --     52.9836                34.0011                18.7194

                     13                     14                     15
                      A                      A                      A
 Frequencies --    616.4692               632.9665               666.6974
 Red. masses --      1.5297                 1.7268                 2.7076
 Frc consts  --      0.3425                 0.4076                 0.7091
 IR Inten    --    123.1724               309.2772                41.5347

                     16                     17                     18
                      A                      A                      A
 Frequencies --    695.0521               720.4870               805.6064
 Red. masses --      3.4677                 2.8345                 3.7788
 Frc consts  --      0.9870                 0.8669                 1.4449
 IR Inten    --     17.1034                35.2405                 4.4453

                     19                     20                     21
                      A                      A                      A
 Frequencies --    931.6185               954.9534               998.3223
 Red. masses --      1.1675                 2.3503                 1.9520
 Frc consts  --      0.5970                 1.2628                 1.1462
 IR Inten    --     37.4640                 6.9200                41.3059

                     22                     23                     24
                      A                      A                      A
 Frequencies --   1095.2867              1130.0602              1184.2235
 Red. masses --      2.0930                 1.7708                 3.4653
 Frc consts  --      1.4794                 1.3323                 2.8632
 IR Inten    --     33.9614                21.9358                85.6379

                     25                     26                     27
                      A                      A                      A
 Frequencies --   1198.8897              1237.1723              1285.0704
 Red. masses --      3.2190                 3.8909                 1.4958
 Frc consts  --      2.7260                 3.5088                 1.4554
 IR Inten    --    108.7134                47.7571                32.3095

                     28                     29                     30
                      A                      A                      A
 Frequencies --   1339.2473              1391.7946              1457.7297
 Red. masses --      1.6838                 1.5063                 1.0979
 Frc consts  --      1.7794                 1.7191                 1.3745
 IR Inten    --     10.2733                14.2017                 3.4065

                     31                     32                     33
                      A                      A                      A
 Frequencies --   1477.9852              1497.5369              1580.6729
 Red. masses --      1.7201                 1.4151                 5.3924
 Frc consts  --      2.2138                 1.8697                 7.9381
 IR Inten    --      2.5664                 9.2933               153.8869

                     34                     35                     36
                      A                      A                      A
 Frequencies --   1658.3171              1964.6455              3037.3471
 Red. masses --      1.1045                11.9918                 1.0591
 Frc consts  --      1.7896                27.2711                 5.7569
 IR Inten    --     27.2641               409.9312                28.3105

                     37                     38                     39
                      A                      A                      A
 Frequencies --   3086.3971              3396.2385              3485.9306
 Red. masses --      1.1042                 1.0747                 1.0748
 Frc consts  --      6.1972                 7.3038                 7.6952
 IR Inten    --      9.3556                 0.0948                 7.7069

                     40                     41                     42
                      A                      A                      A
 Frequencies --   3528.9867              3533.2794              3623.0908
 Red. masses --      1.0498                 1.0776                 1.0946
 Frc consts  --      7.7031                 7.9259                 8.4654
 IR Inten    --      1.3185                39.2161                14.5990

 - Thermochemistry -
 -------------------
 Temperature   298.150 Kelvin.  Pressure   1.00000 Atm.
 Atom     1 has atomic number  7 and mass  14.00307

 Molecular mass:   129.06506 amu.
 Principal axes and moments of inertia in atomic units:
                           1         2         3
     Eigenvalues --   696.196971507.294621846.96331
           X            0.99915   0.03997   0.01014
           Y           -0.04028   0.99866   0.03240
           Z           -0.00883  -0.03278   0.99942
 This molecule is an asymmetric top.
 Rotational symmetry number  1.
 Warning -- assumption of classical behavior for rotation
           may cause significant error
 Rotational temperatures (Kelvin)      0.12441     0.05746     0.04690
 Rotational constants (GHZ):           2.59229     1.19734     0.97714
 Zero-point vibrational energy     320960.9 (Joules/Mol)
                                   76.71150 (Kcal/Mol)
 Warning -- explicit consideration of  13 degrees of freedom as
           vibrations may cause significant error
 Vibrational temperatures:     72.56   120.98   180.00   221.43   245.65
          (Kelvin)            357.52   422.24   502.25   577.94   662.97
                              746.43   851.50   886.96   910.70   959.23
                             1000.02  1036.62  1159.09  1340.39  1373.96
                             1436.36  1575.87  1625.90  1703.83  1724.93
                             1780.01  1848.93  1926.88  2002.48  2097.35
                             2126.49  2154.62  2274.24  2385.95  2826.69
                             4370.07  4440.64  4886.43  5015.48  5077.42
                             5083.60  5212.82

 Zero-point correction=                           0.122248 (Hartree/Particle)
 Thermal correction to Energy=                    0.131823
 Thermal correction to Enthalpy=                  0.132767
 Thermal correction to Gibbs Free Energy=         0.087147
 Sum of electronic and zero-point Energies=           -467.300293
 Sum of electronic and thermal Energies=              -467.290718
 Sum of electronic and thermal Enthalpies=            -467.289774
 Sum of electronic and thermal Free Energies=         -467.335394

                     E (Thermal)             CV                S
                      KCal/Mol        Cal/Mol-Kelvin    Cal/Mol-Kelvin
 Total                   82.720             33.977             96.015
 Electronic               0.000              0.000              0.000
 Translational            0.889              2.981             40.479
 Rotational               0.889              2.981             29.051
 Vibrational             80.943             28.016             26.486
 Vibration     1          0.595              1.977              4.800
 Vibration     2          0.601              1.960              3.793
 Vibration     3          0.610              1.928              3.020
 Vibration     4          0.619              1.898              2.623
 Vibration     5          0.626              1.879              2.427
 Vibration     6          0.662              1.765              1.741
 Vibration     7          0.688              1.686              1.454
 Vibration     8          0.726              1.577              1.170
 Vibration     9          0.767              1.466              0.956
 Vibration    10          0.819              1.337              0.764
 Vibration    11          0.874              1.208              0.613
 Vibration    12          0.949              1.049              0.464
 Vibration    13          0.976              0.997              0.422

                           ! Non-Optimized Parameters !
 Normal termination of Gaussian 16 at Mon May 31 19:57:58 2021.
