 Gaussian 16, Revision A.03,
 Gaussian 16:  ES64L-G16RevA.03 25-Dec-2016

 -----------------------------
 # opt freq b3lyp/6-31g(2df,p)
 -----------------------------

 -------------------
 Title Card Required
 -------------------
 Symbolic Z-matrix:
 Charge =  0 Multiplicity = 1

 SCF Done:  E(RB3LYP) =  -354.121805802     A.U. after   14 cycles
 SCF Done:  E(RB3LYP) =  -354.125316762     A.U. after   13 cycles
 SCF Done:  E(RB3LYP) =  -354.127421769     A.U. after   12 cycles
 SCF Done:  E(RB3LYP) =  -354.127548268     A.U. after   11 cycles
 SCF Done:  E(RB3LYP) =  -354.127572734     A.U. after    9 cycles
 SCF Done:  E(RB3LYP) =  -354.127573377     A.U. after    8 cycles
 Optimization completed.
    -- Stationary point found.
 Normal termination of Gaussian 16 at Mon May 31 23:44:17 2021.

 ----------------------------------------------------------------------
 #N Geom=AllCheck Guess=TCheck SCRF=Check GenChk RB3LYP/6-31G(2df,p) Fr
 eq
 ----------------------------------------------------------------------

 Structure from the checkpoint file:  "NdNNCNdCN.chk"
 -------------------
 Title Card Required
 -------------------
 Charge =  0 Multiplicity = 1

                         Standard orientation:
 ---------------------------------------------------------------------
 Center     Atomic      Atomic             Coordinates (Angstroms)
 Number     Number       Type             X           Y           Z
 ---------------------------------------------------------------------
      1          7           0       -3.364211   -0.517997   -0.000010
      2          7           0       -2.431317    0.331795    0.000004
      3          7           0       -1.224597   -0.195491    0.000015
      4          6           0       -0.052922    0.658082    0.000005
      5          7           0        1.092290   -0.223663    0.000008
      6          6           0        2.247615    0.307433   -0.000006
      7          7           0        3.392387   -0.425815   -0.000007
      8          1           0       -4.226789    0.035343   -0.000053
      9          1           0       -1.106673   -1.204241    0.000008
     10          1           0       -0.074106    1.310388    0.887849
     11          1           0       -0.074111    1.310377   -0.887847
     12          1           0        2.433179    1.390813   -0.000020
     13          1           0        3.335071   -1.430059    0.000009
     14          1           0        4.293402    0.012477   -0.000013
 ---------------------------------------------------------------------

 SCF Done:  E(RB3LYP) =  -354.127573377     A.U. after    1 cycles

 The electronic state is 1-A.
 Alpha  occ. eigenvalues --  -14.38865 -14.35707 -14.35449 -14.31491 -14.30542
 Alpha  occ. eigenvalues --  -10.26144 -10.24063  -1.04394  -0.95836  -0.90111
 Alpha  occ. eigenvalues --   -0.85461  -0.70577  -0.62069  -0.61161  -0.55981
 Alpha  occ. eigenvalues --   -0.50533  -0.48560  -0.46669  -0.44896  -0.43358
 Alpha  occ. eigenvalues --   -0.39510  -0.37624  -0.36314  -0.26570  -0.24061
 Alpha  occ. eigenvalues --   -0.22077  -0.21577
 Alpha virt. eigenvalues --    0.00203   0.02703   0.06975   0.09588   0.12546
 Alpha virt. eigenvalues --    0.13255   0.14532   0.16131   0.19543   0.19675
 Alpha virt. eigenvalues --    0.23128   0.28317   0.32433   0.33337   0.36871

 Mulliken charges:
               1
     1  N   -0.384615
     2  N   -0.059182
     3  N   -0.175971
     4  C   -0.042649
     5  N   -0.269796
     6  C    0.124024
     7  N   -0.496917
     8  H    0.231597
     9  H    0.237864
    10  H    0.107373
    11  H    0.107372
    12  H    0.091975
    13  H    0.264521
    14  H    0.264407
 Sum of Mulliken charges =  -0.00000

 Dipole moment (field-independent basis, Debye):
    X=              5.0598    Y=              1.1044    Z=             -0.0001  Tot=              5.1789
 Quadrupole moment (field-independent basis, Debye-Ang):
   XX=            -29.6982   YY=            -39.8865   ZZ=            -42.9823
   XY=             -2.4844   XZ=              0.0002   YZ=             -0.0000

  Exact polarizability: 107.096   1.561  51.672   0.000  -0.000  32.787
 Approx polarizability: 143.203   7.600  78.538   0.000  -0.000  49.461

 ******    3 imaginary frequencies (negative Signs) ******

                      1                      2                      3
                      A                      A                      A
 Frequencies --   -312.1676              -155.7443               -89.6777
 Red. masses --      1.2918                 3.0698                 2.2899
 Frc consts  --      0.0742                 0.0439                 0.0109
 IR Inten    --    182.0111                13.8590                 7.5087

                      4                      5                      6
                      A                      A                      A
 Frequencies --     21.1792               124.6653               246.1045
 Red. masses --      3.7925                 4.2533                 2.7165
 Frc consts  --      0.0010                 0.0389                 0.0969
 IR Inten    --      1.3899                 0.4159                20.5398

                      7                      8                      9
                      A                      A                      A
 Frequencies --    305.2096               389.7473               537.7422
 Red. masses --      4.0985                 6.4581                 1.4706
 Frc consts  --      0.2249                 0.5780                 0.2505
 IR Inten    --      2.6645                 0.0609                56.6299

                     10                     11                     12
                      A                      A                      A
 Frequencies --    572.8834               578.4071               664.5939
 Red. masses --      2.8598                 1.2610                 3.6444
 Frc consts  --      0.5530                 0.2486                 0.9484
 IR Inten    --     13.5655                24.4607                55.6308

                     13                     14                     15
                      A                      A                      A
 Frequencies --    913.6188               976.7259               996.0048
 Red. masses --      1.1529                 2.2813                 1.4372
 Frc consts  --      0.5670                 1.2823                 0.8400
 IR Inten    --     39.4743                19.6119                 6.3780

                     16                     17                     18
                      A                      A                      A
 Frequencies --   1087.6745              1145.5950              1164.1478
 Red. masses --      1.5430                 3.0790                 2.9911
 Frc consts  --      1.0755                 2.3808                 2.3883
 IR Inten    --      1.3195                 9.8344                 7.8655

                     19                     20                     21
                      A                      A                      A
 Frequencies --   1215.7619              1244.8549              1301.6020
 Red. masses --      2.1416                 1.0514                 2.4233
 Frc consts  --      1.8650                 0.9600                 2.4189
 IR Inten    --    278.3727                 0.2110               111.9732

                     22                     23                     24
                      A                      A                      A
 Frequencies --   1372.2774              1412.5539              1464.3007
 Red. masses --      1.2992                 1.6536                 1.8723
 Frc consts  --      1.4415                 1.9439                 2.3653
 IR Inten    --     32.2479                 8.2070               168.4871

                     25                     26                     27
                      A                      A                      A
 Frequencies --   1499.2847              1522.3773              1567.8854
 Red. masses --      1.5028                 1.1271                 4.1736
 Frc consts  --      1.9904                 1.5391                 6.0450
 IR Inten    --     43.0081                23.6583               187.9909

                     28                     29                     30
                      A                      A                      A
 Frequencies --   1623.4886              1773.4155              2953.0077
 Red. masses --      1.2358                 6.3609                 1.0534
 Frc consts  --      1.9190                11.7866                 5.4123
 IR Inten    --     41.7607               474.8682                56.1301

                     31                     32                     33
                      A                      A                      A
 Frequencies --   2977.3685              3022.9511              3391.0333
 Red. masses --      1.1082                 1.0871                 1.0747
 Frc consts  --      5.7881                 5.8528                 7.2809
 IR Inten    --     55.4014                59.6281                 1.7538

                     34                     35                     36
                      A                      A                      A
 Frequencies --   3521.9140              3626.0362              3768.3252
 Red. masses --      1.0751                 1.0463                 1.1032
 Frc consts  --      7.8573                 8.1051                 9.2297
 IR Inten    --     10.2649                66.2689                52.2697

 - Thermochemistry -
 -------------------
 Temperature   298.150 Kelvin.  Pressure   1.00000 Atm.
 Atom     1 has atomic number  7 and mass  14.00307

 Molecular mass:   101.07015 amu.
 Principal axes and moments of inertia in atomic units:
                           1         2         3
     Eigenvalues --    92.519431989.667972070.83938
           X            1.00000  -0.00052   0.00000
           Y            0.00052   1.00000  -0.00000
           Z           -0.00000   0.00000   1.00000
 This molecule is an asymmetric top.
 Rotational symmetry number  1.
 Rotational temperatures (Kelvin)      0.93617     0.04353     0.04183
 Rotational constants (GHZ):          19.50662     0.90706     0.87150
    3 imaginary frequencies ignored.
 Zero-point vibrational energy     292981.8 (Joules/Mol)
                                   70.02434 (Kcal/Mol)
 Warning -- explicit consideration of   8 degrees of freedom as
           vibrations may cause significant error
 Vibrational temperatures:     30.47   179.37   354.09   439.13   560.76
          (Kelvin)            773.69   824.25   832.20   956.20  1314.49
                             1405.29  1433.03  1564.92  1648.26  1674.95
                             1749.21  1791.07  1872.71  1974.40  2032.35
                             2106.80  2157.14  2190.36  2255.84  2335.84
                             2551.55  4248.72  4283.77  4349.35  4878.94
                             5067.25  5217.06  5421.78

 Zero-point correction=                           0.111591 (Hartree/Particle)
 Thermal correction to Energy=                    0.118182
 Thermal correction to Enthalpy=                  0.119126
 Thermal correction to Gibbs Free Energy=         0.079464
 Sum of electronic and zero-point Energies=           -354.015982
 Sum of electronic and thermal Energies=              -354.009392
 Sum of electronic and thermal Enthalpies=            -354.008447
 Sum of electronic and thermal Free Energies=         -354.048110

                     E (Thermal)             CV                S
                      KCal/Mol        Cal/Mol-Kelvin    Cal/Mol-Kelvin
 Total                   74.160             22.166             83.476
 Electronic               0.000              0.000              0.000
 Translational            0.889              2.981             39.750
 Rotational               0.889              2.981             27.435
 Vibrational             72.383             16.204             16.291
 Vibration     1          0.593              1.985              6.520
 Vibration     2          0.610              1.928              3.027
 Vibration     3          0.661              1.769              1.758
 Vibration     4          0.696              1.664              1.388
 Vibration     5          0.758              1.492              1.001
 Vibration     6          0.893              1.167              0.570
 Vibration     7          0.929              1.090              0.499
 Vibration     8          0.935              1.078              0.488

 Optimization completed.
    -- Stationary point found.
 Normal termination of Gaussian 16 at Mon May 31 23:58:05 2021.
