 Gaussian 16, Revision A.03,
 Gaussian 16:  ES64L-G16RevA.03 25-Dec-2016

 -----------------------------
 # opt freq b3lyp/6-31g(2df,p)
 -----------------------------

 -------------------
 Title Card Required
 -------------------
 Symbolic Z-matrix:
 Charge =  0 Multiplicity = 1

 SCF Done:  E(RB3LYP) =  -528.622125436     A.U. after   14 cycles
 SCF Done:  E(RB3LYP) =  -528.629066667     A.U. after   12 cycles
 SCF Done:  E(RB3LYP) =  -528.631939033     A.U. after   12 cycles
 SCF Done:  E(RB3LYP) =  -528.632297830     A.U. after   11 cycles
 SCF Done:  E(RB3LYP) =  -528.632410479     A.U. after   10 cycles
 SCF Done:  E(RB3LYP) =  -528.632476814     A.U. after   10 cycles
 SCF Done:  E(RB3LYP) =  -528.632521107     A.U. after   10 cycles
 SCF Done:  E(RB3LYP) =  -528.632591904     A.U. after   12 cycles
 SCF Done:  E(RB3LYP) =  -528.632645610     A.U. after   11 cycles
 SCF Done:  E(RB3LYP) =  -528.632709891     A.U. after   13 cycles
 SCF Done:  E(RB3LYP) =  -528.633810552     A.U. after   12 cycles
 SCF Done:  E(RB3LYP) =  -528.633832578     A.U. after   11 cycles
 SCF Done:  E(RB3LYP) =  -528.633850563     A.U. after   12 cycles
 SCF Done:  E(RB3LYP) =  -528.633855541     A.U. after   10 cycles
 SCF Done:  E(RB3LYP) =  -528.633856304     A.U. after    9 cycles
 SCF Done:  E(RB3LYP) =  -528.633857550     A.U. after   10 cycles
 SCF Done:  E(RB3LYP) =  -528.633857991     A.U. after    8 cycles
 SCF Done:  E(RB3LYP) =  -528.633858069     A.U. after    7 cycles
 SCF Done:  E(RB3LYP) =  -528.633858092     A.U. after    6 cycles
 Optimization completed.
    -- Stationary point found.
 Normal termination of Gaussian 16 at Tue Jun  1 03:10:44 2021.

 ----------------------------------------------------------------------
 #N Geom=AllCheck Guess=TCheck SCRF=Check GenChk RB3LYP/6-31G(2df,p) Fr
 eq
 ----------------------------------------------------------------------

 Structure from the checkpoint file:  "NdNNCCCpNpCNCN.chk"
 -------------------
 Title Card Required
 -------------------
 Charge =  0 Multiplicity = 1

                         Standard orientation:
 ---------------------------------------------------------------------
 Center     Atomic      Atomic             Coordinates (Angstroms)
 Number     Number       Type             X           Y           Z
 ---------------------------------------------------------------------
      1          7           0       -5.469093   -0.445842    0.042737
      2          7           0       -4.388529   -0.216486   -0.556031
      3          7           0       -3.322075   -0.232776    0.247298
      4          6           0       -2.099840    0.393326   -0.219777
      5          6           0       -0.860141   -0.316526    0.328273
      6          6           0        0.465986    0.311180   -0.141429
      7          7           0        0.687864    1.700235    0.290073
      8          6           0        1.662136   -0.530969    0.319282
      9          7           0        2.887926   -0.038813   -0.280655
     10          6           0        4.093820   -0.659857    0.226417
     11          7           0        5.234684   -0.044649   -0.440061
     12          1           0       -6.186846   -0.456551   -0.689114
     13          1           0       -3.530727   -0.251248    1.244242
     14          1           0       -2.076042    1.460257    0.050415
     15          1           0       -2.126645    0.337553   -1.312041
     16          1           0       -0.899932   -1.368968    0.023842
     17          1           0       -0.888454   -0.308171    1.427978
     18          1           0        0.484441    0.321882   -1.238969
     19          1           0        0.511367    1.790663    1.287746
     20          1           0        0.055788    2.338591   -0.180016
     21          1           0        1.508717   -1.576295    0.021158
     22          1           0        1.687275   -0.525090    1.429965
     23          1           0        2.939039    0.966385   -0.139419
     24          1           0        3.997361   -1.749330    0.062467
     25          1           0        4.235951   -0.520590    1.316432
     26          1           0        5.200215   -0.267785   -1.430530
     27          1           0        6.101281   -0.425904   -0.074275
 ---------------------------------------------------------------------

 SCF Done:  E(RB3LYP) =  -528.633858092     A.U. after    1 cycles

 The electronic state is 1-A.
 Alpha  occ. eigenvalues --  -14.40403 -14.37089 -14.33409 -14.31839 -14.30198
 Alpha  occ. eigenvalues --  -14.29784 -10.22618 -10.22131 -10.21711 -10.20131
 Alpha  occ. eigenvalues --  -10.19062  -1.05760  -0.91810  -0.90115  -0.88785
 Alpha  occ. eigenvalues --   -0.84073  -0.77396  -0.71529  -0.65527  -0.62721
 Alpha  occ. eigenvalues --   -0.60759  -0.58654  -0.53044  -0.51288  -0.49365
 Alpha  occ. eigenvalues --   -0.47480  -0.47019  -0.46327  -0.44736  -0.42690
 Alpha  occ. eigenvalues --   -0.41982  -0.40362  -0.39483  -0.38862  -0.37689
 Alpha  occ. eigenvalues --   -0.36936  -0.36138  -0.34718  -0.33371  -0.25391
 Alpha  occ. eigenvalues --   -0.23792  -0.23586  -0.23444  -0.21294
 Alpha virt. eigenvalues --   -0.00957   0.06475   0.09207   0.09306   0.10346
 Alpha virt. eigenvalues --    0.11019   0.12175   0.12940   0.13910   0.14901
 Alpha virt. eigenvalues --    0.15470   0.15830   0.17047   0.17581   0.18968

 Mulliken charges:
               1
     1  N   -0.367235
     2  N   -0.049983
     3  N   -0.181194
     4  C   -0.135724
     5  C   -0.199874
     6  C    0.005974
     7  N   -0.511866
     8  C   -0.117560
     9  N   -0.280772
    10  C   -0.078431
    11  N   -0.511603
    12  H    0.240027
    13  H    0.225916
    14  H    0.092733
    15  H    0.130656
    16  H    0.111169
    17  H    0.088646
    18  H    0.093685
    19  H    0.222523
    20  H    0.233855
    21  H    0.096281
    22  H    0.063055
    23  H    0.230172
    24  H    0.075845
    25  H    0.073652
    26  H    0.226741
    27  H    0.223311
 Sum of Mulliken charges =  -0.00000

 Dipole moment (field-independent basis, Debye):
    X=              0.8029    Y=             -0.1154    Z=              0.7944  Tot=              1.1354
 Quadrupole moment (field-independent basis, Debye-Ang):
   XX=            -76.4222   YY=            -68.0258   ZZ=            -65.8943
   XY=            -10.0319   XZ=              2.5688   YZ=              1.6311

  Exact polarizability: 152.230   3.247  81.167   2.980  -1.438  84.713
 Approx polarizability: 177.824   6.798 122.077   3.270  -2.468 134.393

                      1                      2                      3
                      A                      A                      A
 Frequencies --     26.8748                47.4916                66.4377
 Red. masses --      4.4769                 3.7257                 2.9927
 Frc consts  --      0.0019                 0.0050                 0.0078
 IR Inten    --      0.2641                 0.5825                 0.5428

                      4                      5                      6
                      A                      A                      A
 Frequencies --     69.7463               103.0201               122.1495
 Red. masses --      3.2473                 2.2781                 2.4330
 Frc consts  --      0.0093                 0.0142                 0.0214
 IR Inten    --      1.9433                 1.2687                 5.6066

                      7                      8                      9
                      A                      A                      A
 Frequencies --    128.9359               176.9378               206.6221
 Red. masses --      4.4339                 2.2644                 3.9938
 Frc consts  --      0.0434                 0.0418                 0.1005
 IR Inten    --      3.1053                10.6887                10.0239

                     10                     11                     12
                      A                      A                      A
 Frequencies --    234.0522               269.6648               288.3128
 Red. masses --      4.6049                 1.1501                 1.3169
 Frc consts  --      0.1486                 0.0493                 0.0645
 IR Inten    --      2.1453                 7.3557                43.6305

                     13                     14                     15
                      A                      A                      A
 Frequencies --    314.4274               333.0857               406.2432
 Red. masses --      3.1250                 3.1102                 3.0300
 Frc consts  --      0.1820                 0.2033                 0.2946
 IR Inten    --     12.1323                 3.1766                10.4229

                     16                     17                     18
                      A                      A                      A
 Frequencies --    461.7254               522.9694               558.5400
 Red. masses --      2.3797                 2.9437                 2.9170
 Frc consts  --      0.2989                 0.4743                 0.5362
 IR Inten    --      5.7052                 5.6622                 8.4486

                     19                     20                     21
                      A                      A                      A
 Frequencies --    637.3720               684.1710               777.5619
 Red. masses --      1.6816                 2.2283                 1.1859
 Frc consts  --      0.4025                 0.6146                 0.4224
 IR Inten    --    120.3917                51.4687                16.1494

                     22                     23                     24
                      A                      A                      A
 Frequencies --    839.2150               847.8664               871.3999
 Red. masses --      1.7077                 1.4379                 1.2336
 Frc consts  --      0.7086                 0.6090                 0.5519
 IR Inten    --     64.1591               145.9217               113.1417

                     25                     26                     27
                      A                      A                      A
 Frequencies --    900.6238               924.2295               956.5810
 Red. masses --      1.9128                 1.1727                 1.4911
 Frc consts  --      0.9141                 0.5902                 0.8039
 IR Inten    --     57.5657                39.2086                 1.1622

                     28                     29                     30
                      A                      A                      A
 Frequencies --    982.0448               998.9419              1037.2235
 Red. masses --      1.4828                 1.7719                 2.7431
 Frc consts  --      0.8426                 1.0418                 1.7387
 IR Inten    --      1.3323                 8.3011                68.5208

                     31                     32                     33
                      A                      A                      A
 Frequencies --   1065.0730              1076.1950              1092.8726
 Red. masses --      2.4050                 2.5177                 2.0124
 Frc consts  --      1.6074                 1.7180                 1.4161
 IR Inten    --     14.0318                10.7551                 8.3127

                     34                     35                     36
                      A                      A                      A
 Frequencies --   1140.2692              1167.1678              1172.9955
 Red. masses --      2.2413                 2.0830                 2.1368
 Frc consts  --      1.7170                 1.6719                 1.7322
 IR Inten    --     96.8949                 1.7330                96.6216

                     37                     38                     39
                      A                      A                      A
 Frequencies --   1189.9091              1200.9549              1236.3972
 Red. masses --      2.4679                 1.6983                 1.5617
 Frc consts  --      2.0587                 1.4432                 1.4065
 IR Inten    --     85.0231                23.4677                59.7505

                     40                     41                     42
                      A                      A                      A
 Frequencies --   1255.5807              1270.6419              1299.0944
 Red. masses --      1.4554                 1.2334                 1.3100
 Frc consts  --      1.3519                 1.1732                 1.3026
 IR Inten    --     13.5377                 1.2609                 2.2336

                     43                     44                     45
                      A                      A                      A
 Frequencies --   1314.0184              1339.6651              1350.9731
 Red. masses --      1.2315                 1.2635                 1.2771
 Frc consts  --      1.2528                 1.3360                 1.3733
 IR Inten    --      1.7359                 2.1924                 0.3070

                     46                     47                     48
                      A                      A                      A
 Frequencies --   1379.0623              1400.2297              1420.0090
 Red. masses --      1.3218                 1.4373                 1.3347
 Frc consts  --      1.4811                 1.6603                 1.5857
 IR Inten    --      3.7965                36.8255                 4.1672

                     49                     50                     51
                      A                      A                      A
 Frequencies --   1448.0319              1473.7763              1482.1640
 Red. masses --      1.3761                 1.8759                 1.0996
 Frc consts  --      1.7000                 2.4006                 1.4233
 IR Inten    --      5.1134                 1.7864                15.3267

                     52                     53                     54
                      A                      A                      A
 Frequencies --   1483.5162              1494.2900              1508.9740
 Red. masses --      1.2999                 1.3223                 1.1217
 Frc consts  --      1.6855                 1.7396                 1.5048
 IR Inten    --    131.1246                 8.6533                 2.0705

                     55                     56                     57
                      A                      A                      A
 Frequencies --   1511.5228              1540.5600              1581.5774
 Red. masses --      1.1137                 1.0885                 4.7345
 Frc consts  --      1.4992                 1.5220                 6.9776
 IR Inten    --     15.4107                 1.4517               172.2200

                     58                     59                     60
                      A                      A                      A
 Frequencies --   1641.0268              1652.7113              2872.7684
 Red. masses --      1.1002                 1.0955                 1.0725
 Frc consts  --      1.7456                 1.7629                 5.2150
 IR Inten    --     30.6694                19.5825                61.3532

                     61                     62                     63
                      A                      A                      A
 Frequencies --   2903.6123              2924.2996              2981.3138
 Red. masses --      1.0656                 1.0927                 1.0707
 Frc consts  --      5.2932                 5.5055                 5.6068
 IR Inten    --    119.4654                86.7220                53.0440

                     64                     65                     66
                      A                      A                      A
 Frequencies --   3001.6296              3028.9122              3035.1786
 Red. masses --      1.0661                 1.0821                 1.0850
 Frc consts  --      5.6592                 5.8492                 5.8892
 IR Inten    --     14.9281                30.0370                23.7008

                     67                     68                     69
                      A                      A                      A
 Frequencies --   3063.7835              3093.3765              3391.9994
 Red. masses --      1.0934                 1.0924                 1.0746
 Frc consts  --      6.0472                 6.1586                 7.2846
 IR Inten    --     33.5536                20.9228                 0.4251

                     70                     71                     72
                      A                      A                      A
 Frequencies --   3470.0482              3485.5743              3493.7906
 Red. masses --      1.0738                 1.0508                 1.0491
 Frc consts  --      7.6178                 7.5214                 7.5450
 IR Inten    --      1.3099                 0.6207                 0.5497

                     73                     74                     75
                      A                      A                      A
 Frequencies --   3515.0377              3579.2727              3580.0745
 Red. masses --      1.0728                 1.0907                 1.0924
 Frc consts  --      7.8093                 8.2325                 8.2492
 IR Inten    --     12.6753                 0.8372                 0.2314

 - Thermochemistry -
 -------------------
 Temperature   298.150 Kelvin.  Pressure   1.00000 Atm.
 Atom     1 has atomic number  7 and mass  14.00307

 Molecular mass:   160.14364 amu.
 Principal axes and moments of inertia in atomic units:
                           1         2         3
     Eigenvalues --   383.211706614.582926789.90229
           X            0.99998  -0.00623   0.00086
           Y            0.00624   0.99989  -0.01345
           Z           -0.00078   0.01346   0.99991
 This molecule is an asymmetric top.
 Rotational symmetry number  1.
 Rotational temperatures (Kelvin)      0.22602     0.01309     0.01276
 Rotational constants (GHZ):           4.70951     0.27284     0.26580
 Zero-point vibrational energy     630458.3 (Joules/Mol)
                                  150.68315 (Kcal/Mol)
 Warning -- explicit consideration of  18 degrees of freedom as
           vibrations may cause significant error
 Vibrational temperatures:     38.67    68.33    95.59   100.35   148.22
          (Kelvin)            175.75   185.51   254.57   297.28   336.75
                              387.99   414.82   452.39   479.24   584.49
                              664.32   752.44   803.61   917.04   984.37
                             1118.74  1207.44  1219.89  1253.75  1295.80
                             1329.76  1376.31  1412.94  1437.25  1492.33
                             1532.40  1548.40  1572.40  1640.59  1679.29
                             1687.68  1712.01  1727.91  1778.90  1806.50
                             1828.17  1869.11  1890.58  1927.48  1943.75
                             1984.16  2014.62  2043.08  2083.39  2120.44
                             2132.50  2134.45  2149.95  2171.08  2174.74
                             2216.52  2275.54  2361.07  2377.88  4133.27
                             4177.65  4207.41  4289.45  4318.68  4357.93
                             4366.94  4408.10  4450.68  4880.33  4992.63
                             5014.96  5026.79  5057.36  5149.78  5150.93

 Zero-point correction=                           0.240129 (Hartree/Particle)
 Thermal correction to Energy=                    0.253789
 Thermal correction to Enthalpy=                  0.254733
 Thermal correction to Gibbs Free Energy=         0.198271
 Sum of electronic and zero-point Energies=           -528.393729
 Sum of electronic and thermal Energies=              -528.380069
 Sum of electronic and thermal Enthalpies=            -528.379125
 Sum of electronic and thermal Free Energies=         -528.435587

                     E (Thermal)             CV                S
                      KCal/Mol        Cal/Mol-Kelvin    Cal/Mol-Kelvin
 Total                  159.255             47.816            118.835
 Electronic               0.000              0.000              0.000
 Translational            0.889              2.981             41.122
 Rotational               0.889              2.981             31.221
 Vibrational            157.477             41.854             46.492
 Vibration     1          0.593              1.984              6.048
 Vibration     2          0.595              1.979              4.919
 Vibration     3          0.598              1.970              4.256
 Vibration     4          0.598              1.969              4.161
 Vibration     5          0.605              1.947              3.396
 Vibration     6          0.610              1.931              3.066
 Vibration     7          0.611              1.924              2.962
 Vibration     8          0.628              1.871              2.360
 Vibration     9          0.641              1.830              2.073
 Vibration    10          0.654              1.789              1.848
 Vibration    11          0.674              1.729              1.598
 Vibration    12          0.685              1.695              1.484
 Vibration    13          0.702              1.646              1.339
 Vibration    14          0.715              1.609              1.245
 Vibration    15          0.771              1.457              0.940
 Vibration    16          0.819              1.335              0.761
 Vibration    17          0.878              1.199              0.603
 Vibration    18          0.914              1.121              0.527

 Optimization completed.
    -- Stationary point found.
 Normal termination of Gaussian 16 at Tue Jun  1 04:00:13 2021.
