 Gaussian 16, Revision A.03,
 Gaussian 16:  ES64L-G16RevA.03 25-Dec-2016

 -----------------------------
 # opt freq b3lyp/6-31g(2df,p)
 -----------------------------

 -------------------
 Title Card Required
 -------------------
 Symbolic Z-matrix:
 Charge =  0 Multiplicity = 1

 SCF Done:  E(RB3LYP) =  -353.971998950     A.U. after   12 cycles
 SCF Done:  E(RB3LYP) =  -353.999513246     A.U. after   11 cycles
 SCF Done:  E(RB3LYP) =  -354.016584658     A.U. after   12 cycles
 SCF Done:  E(RB3LYP) =  -354.020332973     A.U. after   11 cycles
 SCF Done:  E(RB3LYP) =  -354.021296979     A.U. after   11 cycles
 SCF Done:  E(RB3LYP) =  -354.021501463     A.U. after   10 cycles
 SCF Done:  E(RB3LYP) =  -354.021538695     A.U. after    9 cycles
 SCF Done:  E(RB3LYP) =  -354.021556883     A.U. after    9 cycles
 SCF Done:  E(RB3LYP) =  -354.021574295     A.U. after    9 cycles
 SCF Done:  E(RB3LYP) =  -354.021581493     A.U. after    9 cycles
 SCF Done:  E(RB3LYP) =  -354.021586565     A.U. after    9 cycles
 SCF Done:  E(RB3LYP) =  -354.021587022     A.U. after    7 cycles
 Optimization completed.
    -- Stationary point found.
 Normal termination of Gaussian 16 at Tue Jun  1 04:21:36 2021.

 ----------------------------------------------------------------------
 #N Geom=AllCheck Guess=TCheck SCRF=Check GenChk RB3LYP/6-31G(2df,p) Fr
 eq
 ----------------------------------------------------------------------

 Structure from the checkpoint file:  "NN1CN2NC1N2.chk"
 -------------------
 Title Card Required
 -------------------
 Charge =  0 Multiplicity = 1

                         Standard orientation:
 ---------------------------------------------------------------------
 Center     Atomic      Atomic             Coordinates (Angstroms)
 Number     Number       Type             X           Y           Z
 ---------------------------------------------------------------------
      1          7           0        2.011143   -0.217490    0.166891
      2          7           0        0.811878    0.109333   -0.630516
      3          6           0        0.096285    1.242623    0.028862
      4          7           0       -1.187487    0.606794    0.485335
      5          7           0       -1.479589   -0.261681   -0.728414
      6          6           0       -0.231493   -0.915417   -0.325517
      7          7           0       -0.670500   -0.691394    1.059565
      8          1           0        2.616739    0.595973    0.062545
      9          1           0        2.489322   -0.932933   -0.382652
     10          1           0       -0.124124    2.051620   -0.671622
     11          1           0        0.644497    1.635061    0.890710
     12          1           0       -1.361786    0.291849   -1.580179
     13          1           0        0.017014   -1.918156   -0.676322
     14          1           0        0.131472   -0.505591    1.667422
 ---------------------------------------------------------------------

 SCF Done:  E(RB3LYP) =  -354.021587022     A.U. after    1 cycles

 The electronic state is 1-A.
 Alpha  occ. eigenvalues --  -14.38854 -14.35943 -14.35654 -14.35322 -14.34651
 Alpha  occ. eigenvalues --  -10.27061 -10.24010  -1.07723  -0.95314  -0.83181
 Alpha  occ. eigenvalues --   -0.79903  -0.78141  -0.62247  -0.59676  -0.55657
 Alpha  occ. eigenvalues --   -0.50689  -0.48548  -0.46736  -0.45291  -0.39461
 Alpha  occ. eigenvalues --   -0.39021  -0.38455  -0.34466  -0.30333  -0.27184
 Alpha  occ. eigenvalues --   -0.24002  -0.21785
 Alpha virt. eigenvalues --    0.06452   0.07193   0.07780   0.09848   0.11830
 Alpha virt. eigenvalues --    0.12520   0.14549   0.15196   0.16006   0.17988
 Alpha virt. eigenvalues --    0.19483   0.20506   0.21212   0.24381   0.30455

 Mulliken charges:
               1
     1  N   -0.484953
     2  N   -0.139584
     3  C   -0.119021
     4  N   -0.102903
     5  N   -0.255890
     6  C    0.059537
     7  N   -0.248455
     8  H    0.247136
     9  H    0.246127
    10  H    0.120461
    11  H    0.118162
    12  H    0.229966
    13  H    0.092413
    14  H    0.237004
 Sum of Mulliken charges =  -0.00000

 Dipole moment (field-independent basis, Debye):
    X=              3.7601    Y=              0.8861    Z=             -1.4949  Tot=              4.1422
 Quadrupole moment (field-independent basis, Debye-Ang):
   XX=            -43.6430   YY=            -38.5646   ZZ=            -41.7765
   XY=             -1.3053   XZ=              2.4115   YZ=              1.1314

  Exact polarizability:  57.494  -0.841  54.638   2.987   0.764  47.893
 Approx polarizability:  83.981  -1.705  85.271   4.487   1.290  78.325

                      1                      2                      3
                      A                      A                      A
 Frequencies --    153.8673               216.6841               351.2136
 Red. masses --      1.0917                 3.1782                 3.8503
 Frc consts  --      0.0152                 0.0879                 0.2798
 IR Inten    --     31.0582                 1.5972                 3.3113

                      4                      5                      6
                      A                      A                      A
 Frequencies --    487.5921               544.7732               631.1670
 Red. masses --      2.1326                 3.5526                 3.3077
 Frc consts  --      0.2987                 0.6212                 0.7764
 IR Inten    --      2.7834                18.7374                11.2702

                      7                      8                      9
                      A                      A                      A
 Frequencies --    703.4535               767.4476               804.6583
 Red. masses --      4.1527                 6.2287                 4.5968
 Frc consts  --      1.2107                 2.1615                 1.7536
 IR Inten    --     20.8314                18.4852                14.0836

                     10                     11                     12
                      A                      A                      A
 Frequencies --    850.2653               881.8228               903.2217
 Red. masses --      5.5510                 6.0613                 3.1157
 Frc consts  --      2.3644                 2.7770                 1.4976
 IR Inten    --      7.3253                22.7393                37.4581

                     13                     14                     15
                      A                      A                      A
 Frequencies --    936.1304               983.8297              1007.3220
 Red. masses --      5.5597                 3.6942                 3.7233
 Frc consts  --      2.8706                 2.1068                 2.2259
 IR Inten    --     19.4597                17.8599                25.5636

                     16                     17                     18
                      A                      A                      A
 Frequencies --   1081.2837              1117.7561              1121.6933
 Red. masses --      1.3884                 2.9688                 1.4985
 Frc consts  --      0.9564                 2.1854                 1.1108
 IR Inten    --     26.0697                42.8846                 9.3029

                     19                     20                     21
                      A                      A                      A
 Frequencies --   1164.3945              1193.4175              1210.2966
 Red. masses --      1.4440                 1.2037                 1.3392
 Frc consts  --      1.1535                 1.0101                 1.1558
 IR Inten    --     61.5473                10.1278                43.1795

                     22                     23                     24
                      A                      A                      A
 Frequencies --   1264.3275              1295.9876              1307.0673
 Red. masses --      1.2853                 1.5422                 1.2263
 Frc consts  --      1.2105                 1.5262                 1.2344
 IR Inten    --     34.5502                 7.6390                14.3867

                     25                     26                     27
                      A                      A                      A
 Frequencies --   1327.8769              1360.8045              1393.1630
 Red. masses --      1.3400                 1.4248                 1.3227
 Frc consts  --      1.3921                 1.5545                 1.5125
 IR Inten    --      6.4084                 7.2081                43.0130

                     28                     29                     30
                      A                      A                      A
 Frequencies --   1510.6289              1656.3159              3054.0386
 Red. masses --      1.0920                 1.0673                 1.0573
 Frc consts  --      1.4682                 1.7252                 5.8102
 IR Inten    --      0.7812                31.5146                33.7721

                     31                     32                     33
                      A                      A                      A
 Frequencies --   3110.1991              3119.7571              3434.6313
 Red. masses --      1.1112                 1.0919                 1.0737
 Frc consts  --      6.3329                 6.2617                 7.4625
 IR Inten    --     15.3097                38.5016                 3.4691

                     34                     35                     36
                      A                      A                      A
 Frequencies --   3437.9612              3440.0479              3513.4834
 Red. masses --      1.0527                 1.0738                 1.0904
 Frc consts  --      7.3306                 7.4866                 7.9309
 IR Inten    --      0.3643                 0.0427                 1.5333

 - Thermochemistry -
 -------------------
 Temperature   298.150 Kelvin.  Pressure   1.00000 Atm.
 Atom     1 has atomic number  7 and mass  14.00307

 Molecular mass:   101.07015 amu.
 Principal axes and moments of inertia in atomic units:
                           1         2         3
     Eigenvalues --   340.14322 640.83523 689.54402
           X            0.99974  -0.00564   0.02216
           Y            0.00491   0.99945   0.03271
           Z           -0.02233  -0.03259   0.99922
 This molecule is an asymmetric top.
 Rotational symmetry number  1.
 Rotational temperatures (Kelvin)      0.25464     0.13516     0.12561
 Rotational constants (GHZ):           5.30583     2.81623     2.61730
 Zero-point vibrational energy     307072.9 (Joules/Mol)
                                   73.39219 (Kcal/Mol)
 Warning -- explicit consideration of   5 degrees of freedom as
           vibrations may cause significant error
 Vibrational temperatures:    221.38   311.76   505.32   701.54   783.81
          (Kelvin)            908.11  1012.11  1104.19  1157.72  1223.34
                             1268.75  1299.53  1346.88  1415.51  1449.31
                             1555.73  1608.20  1613.87  1675.30  1717.06
                             1741.35  1819.09  1864.64  1880.58  1910.52
                             1957.89  2004.45  2173.46  2383.07  4394.08
                             4474.88  4488.63  4941.67  4946.46  4949.46
                             5055.12

 Zero-point correction=                           0.116958 (Hartree/Particle)
 Thermal correction to Energy=                    0.122662
 Thermal correction to Enthalpy=                  0.123606
 Thermal correction to Gibbs Free Energy=         0.087654
 Sum of electronic and zero-point Energies=           -353.904629
 Sum of electronic and thermal Energies=              -353.898925
 Sum of electronic and thermal Enthalpies=            -353.897981
 Sum of electronic and thermal Free Energies=         -353.933933

                     E (Thermal)             CV                S
                      KCal/Mol        Cal/Mol-Kelvin    Cal/Mol-Kelvin
 Total                   76.971             22.026             75.666
 Electronic               0.000              0.000              0.000
 Translational            0.889              2.981             39.750
 Rotational               0.889              2.981             26.511
 Vibrational             75.194             16.064              9.405
 Vibration     1          0.619              1.898              2.624
 Vibration     2          0.646              1.816              1.987
 Vibration     3          0.728              1.573              1.161
 Vibration     4          0.844              1.278              0.690
 Vibration     5          0.900              1.151              0.555

 Optimization completed.
    -- Stationary point found.
 Normal termination of Gaussian 16 at Tue Jun  1 04:36:56 2021.
