 Gaussian 16, Revision A.03,
 Gaussian 16:  ES64L-G16RevA.03 25-Dec-2016

 -----------------------------
 # opt freq b3lyp/6-31g(2df,p)
 -----------------------------

 -------------------
 Title Card Required
 -------------------
 Symbolic Z-matrix:
 Charge =  0 Multiplicity = 1

 SCF Done:  E(RB3LYP) =  -267.919830378     A.U. after   12 cycles
 SCF Done:  E(RB3LYP) =  -267.924297550     A.U. after   11 cycles
 SCF Done:  E(RB3LYP) =  -267.925128985     A.U. after   10 cycles
 SCF Done:  E(RB3LYP) =  -267.925346569     A.U. after   10 cycles
 SCF Done:  E(RB3LYP) =  -267.925433865     A.U. after    9 cycles
 SCF Done:  E(RB3LYP) =  -267.925605570     A.U. after   10 cycles
 SCF Done:  E(RB3LYP) =  -267.925830972     A.U. after   10 cycles
 SCF Done:  E(RB3LYP) =  -267.926002007     A.U. after   10 cycles
 SCF Done:  E(RB3LYP) =  -267.926050643     A.U. after    9 cycles
 SCF Done:  E(RB3LYP) =  -267.926058018     A.U. after   10 cycles
 SCF Done:  E(RB3LYP) =  -267.926079387     A.U. after    9 cycles
 SCF Done:  E(RB3LYP) =  -267.926080899     A.U. after    8 cycles
 SCF Done:  E(RB3LYP) =  -267.926083150     A.U. after    8 cycles
 SCF Done:  E(RB3LYP) =  -267.926083627     A.U. after    7 cycles
 Optimization completed.
    -- Stationary point found.
 Normal termination of Gaussian 16 at Mon May 31 21:16:42 2021.

 ----------------------------------------------------------------------
 #N Geom=AllCheck Guess=TCheck SCRF=Check GenChk RB3LYP/6-31G(2df,p) Fr
 eq
 ----------------------------------------------------------------------

 Structure from the checkpoint file:  "NN1CCCC1.chk"
 -------------------
 Title Card Required
 -------------------
 Charge =  0 Multiplicity = 1

                         Standard orientation:
 ---------------------------------------------------------------------
 Center     Atomic      Atomic             Coordinates (Angstroms)
 Number     Number       Type             X           Y           Z
 ---------------------------------------------------------------------
      1          7           0       -2.100499   -0.123789   -0.025470
      2          7           0       -0.723658   -0.031648   -0.359065
      3          6           0       -0.027284    1.154444    0.141435
      4          6           0        1.462492    0.805129   -0.027446
      5          6           0        1.490929   -0.753497   -0.071633
      6          6           0        0.031658   -1.167204    0.164710
      7          1           0       -2.608354    0.503760   -0.642415
      8          1           0       -2.251953    0.220624    0.930735
      9          1           0       -0.268822    1.327156    1.210399
     10          1           0       -0.336702    2.046550   -0.412845
     11          1           0        2.059662    1.209471    0.793275
     12          1           0        1.860583    1.225047   -0.954174
     13          1           0        2.161138   -1.182315    0.676872
     14          1           0        1.830806   -1.099030   -1.051145
     15          1           0       -0.161541   -1.310150    1.246034
     16          1           0       -0.262483   -2.086291   -0.347380
 ---------------------------------------------------------------------

 SCF Done:  E(RB3LYP) =  -267.926083627     A.U. after    1 cycles

 The electronic state is 1-A.
 Alpha  occ. eigenvalues --  -14.33470 -14.32958 -10.19958 -10.19402 -10.18028
 Alpha  occ. eigenvalues --  -10.17775  -0.96656  -0.82681  -0.72094  -0.71610
 Alpha  occ. eigenvalues --   -0.58090  -0.57271  -0.50038  -0.49612  -0.46181
 Alpha  occ. eigenvalues --   -0.42956  -0.38993  -0.38550  -0.36795  -0.34308
 Alpha  occ. eigenvalues --   -0.33737  -0.31772  -0.24419  -0.21509
 Alpha virt. eigenvalues --    0.07772   0.09759   0.10801   0.14156   0.15154
 Alpha virt. eigenvalues --    0.16414   0.17000   0.17588   0.18447   0.19671
 Alpha virt. eigenvalues --    0.20675   0.20882   0.25081   0.25930   0.29072

 Mulliken charges:
               1
     1  N   -0.466145
     2  N   -0.059872
     3  C   -0.135857
     4  C   -0.210811
     5  C   -0.212246
     6  C   -0.107248
     7  H    0.238153
     8  H    0.206118
     9  H    0.065061
    10  H    0.093876
    11  H    0.100723
    12  H    0.107772
    13  H    0.098601
    14  H    0.108425
    15  H    0.067649
    16  H    0.105802
 Sum of Mulliken charges =  -0.00000

 Dipole moment (field-independent basis, Debye):
    X=              0.4775    Y=              1.2102    Z=              0.7165  Tot=              1.4852
 Quadrupole moment (field-independent basis, Debye-Ang):
   XX=            -37.3214   YY=            -37.7271   ZZ=            -37.7731
   XY=             -3.5418   XZ=             -0.6248   YZ=             -0.3515

  Exact polarizability:  63.896  -1.411  56.807  -0.869  -0.226  50.514
 Approx polarizability:  81.523  -1.313  77.138  -0.514  -0.023  78.378

                      1                      2                      3
                      A                      A                      A
 Frequencies --     72.8063               194.8713               298.2330
 Red. masses --      1.5789                 2.2840                 1.1980
 Frc consts  --      0.0049                 0.0511                 0.0628
 IR Inten    --      0.5576                 3.3618                29.0025

                      4                      5                      6
                      A                      A                      A
 Frequencies --    387.3996               393.4179               578.9725
 Red. masses --      2.6979                 1.9583                 4.0872
 Frc consts  --      0.2386                 0.1786                 0.8072
 IR Inten    --     10.2711                 2.6146                 3.9831

                      7                      8                      9
                      A                      A                      A
 Frequencies --    643.9926               760.2592               858.3621
 Red. masses --      2.9259                 1.2804                 1.4757
 Frc consts  --      0.7150                 0.4360                 0.6406
 IR Inten    --      0.2999                 3.9785                 2.7833

                     10                     11                     12
                      A                      A                      A
 Frequencies --    882.8894               902.5056               950.5812
 Red. masses --      3.4009                 2.4203                 1.7565
 Frc consts  --      1.5619                 1.1615                 0.9352
 IR Inten    --     20.7859                 5.4242                52.5171

                     13                     14                     15
                      A                      A                      A
 Frequencies --    980.5877               987.4956              1056.3293
 Red. masses --      1.7325                 1.7550                 1.9975
 Frc consts  --      0.9815                 1.0083                 1.3132
 IR Inten    --      7.4420                21.2543                 1.5235

                     16                     17                     18
                      A                      A                      A
 Frequencies --   1125.6006              1147.8404              1189.3595
 Red. masses --      1.5751                 3.5299                 1.7178
 Frc consts  --      1.1758                 2.7402                 1.4317
 IR Inten    --      0.0773                15.1685                 8.8631

                     19                     20                     21
                      A                      A                      A
 Frequencies --   1214.3265              1226.3734              1253.3114
 Red. masses --      1.3233                 1.4384                 1.5448
 Frc consts  --      1.1497                 1.2746                 1.4297
 IR Inten    --      3.5419                 7.0316                 1.8975

                     22                     23                     24
                      A                      A                      A
 Frequencies --   1275.6943              1309.9961              1320.1775
 Red. masses --      1.1929                 1.2566                 1.3317
 Frc consts  --      1.1438                 1.2706                 1.3674
 IR Inten    --      0.7912                 4.1683                 1.1678

                     25                     26                     27
                      A                      A                      A
 Frequencies --   1342.1211              1367.7979              1391.7260
 Red. masses --      1.3675                 1.5158                 1.4387
 Frc consts  --      1.4514                 1.6708                 1.6419
 IR Inten    --     10.3617                 5.2202                11.6076

                     28                     29                     30
                      A                      A                      A
 Frequencies --   1487.4532              1504.0227              1507.7671
 Red. masses --      1.0788                 1.0890                 1.0852
 Frc consts  --      1.4063                 1.4513                 1.4535
 IR Inten    --      0.5516                 3.5841                 1.4372

                     31                     32                     33
                      A                      A                      A
 Frequencies --   1526.9943              1669.0128              2888.3723
 Red. masses --      1.1089                 1.0838                 1.0733
 Frc consts  --      1.5235                 1.7788                 5.2755
 IR Inten    --      2.3489                17.0407                58.5726

                     34                     35                     36
                      A                      A                      A
 Frequencies --   2911.3714              3057.0395              3062.4209
 Red. masses --      1.0734                 1.0774                 1.0668
 Frc consts  --      5.3604                 5.9326                 5.8949
 IR Inten    --     94.8061                10.8320                48.2608

                     37                     38                     39
                      A                      A                      A
 Frequencies --   3072.3225              3091.9709              3097.9928
 Red. masses --      1.0648                 1.0897                 1.1029
 Frc consts  --      5.9218                 6.1380                 6.2366
 IR Inten    --     47.3487                23.9971                 4.2907

                     40                     41                     42
                      A                      A                      A
 Frequencies --   3118.2267              3331.8908              3527.2171
 Red. masses --      1.1059                 1.0585                 1.0810
 Frc consts  --      6.3354                 6.9233                 7.9236
 IR Inten    --     52.6552                28.7913                 0.1554

 - Thermochemistry -
 -------------------
 Temperature   298.150 Kelvin.  Pressure   1.00000 Atm.
 Atom     1 has atomic number  7 and mass  14.00307

 Molecular mass:    86.08440 amu.
 Principal axes and moments of inertia in atomic units:
                           1         2         3
     Eigenvalues --   268.93176 570.47427 766.80270
           X            0.99971  -0.02206  -0.00914
           Y            0.02205   0.99976  -0.00158
           Z            0.00917   0.00138   0.99996
 This molecule is an asymmetric top.
 Rotational symmetry number  1.
 Rotational temperatures (Kelvin)      0.32207     0.15183     0.11295
 Rotational constants (GHZ):           6.71078     3.16358     2.35359
 Zero-point vibrational energy     382608.2 (Joules/Mol)
                                   91.44556 (Kcal/Mol)
 Warning -- explicit consideration of   6 degrees of freedom as
           vibrations may cause significant error
 Vibrational temperatures:    104.75   280.38   429.09   557.38   566.04
          (Kelvin)            833.01   926.56  1093.84  1234.99  1270.28
                             1298.50  1367.67  1410.85  1420.79  1519.82
                             1619.49  1651.49  1711.22  1747.14  1764.48
                             1803.24  1835.44  1884.79  1899.44  1931.01
                             1967.96  2002.38  2140.11  2163.95  2169.34
                             2197.00  2401.34  4155.72  4188.81  4398.40
                             4406.14  4420.39  4448.66  4457.32  4486.43
                             4793.85  5074.88

 Zero-point correction=                           0.145728 (Hartree/Particle)
 Thermal correction to Energy=                    0.151890
 Thermal correction to Enthalpy=                  0.152834
 Thermal correction to Gibbs Free Energy=         0.115952
 Sum of electronic and zero-point Energies=           -267.780356
 Sum of electronic and thermal Energies=              -267.774194
 Sum of electronic and thermal Enthalpies=            -267.773250
 Sum of electronic and thermal Free Energies=         -267.810132

                     E (Thermal)             CV                S
                      KCal/Mol        Cal/Mol-Kelvin    Cal/Mol-Kelvin
 Total                   95.312             22.695             77.625
 Electronic               0.000              0.000              0.000
 Translational            0.889              2.981             39.271
 Rotational               0.889              2.981             26.267
 Vibrational             93.535             16.734             12.086
 Vibration     1          0.599              1.967              4.076
 Vibration     2          0.636              1.847              2.181
 Vibration     3          0.691              1.677              1.427
 Vibration     4          0.756              1.497              1.010
 Vibration     5          0.761              1.484              0.987
 Vibration     6          0.936              1.077              0.487

 Optimization completed.
    -- Stationary point found.
 Normal termination of Gaussian 16 at Mon May 31 21:33:35 2021.
