 Gaussian 16, Revision A.03,
 Gaussian 16:  ES64L-G16RevA.03 25-Dec-2016

 -----------------------------
 # opt freq b3lyp/6-31g(2df,p)
 -----------------------------

 -------------------
 Title Card Required
 -------------------
 Symbolic Z-matrix:
 Charge =  0 Multiplicity = 1

 SCF Done:  E(RB3LYP) =  -355.255595045     A.U. after   12 cycles
 SCF Done:  E(RB3LYP) =  -355.266595158     A.U. after   11 cycles
 SCF Done:  E(RB3LYP) =  -355.269268092     A.U. after   11 cycles
 SCF Done:  E(RB3LYP) =  -355.270073642     A.U. after   11 cycles
 SCF Done:  E(RB3LYP) =  -355.270364103     A.U. after   10 cycles
 SCF Done:  E(RB3LYP) =  -355.270549300     A.U. after   11 cycles
 SCF Done:  E(RB3LYP) =  -355.270687574     A.U. after   11 cycles
 SCF Done:  E(RB3LYP) =  -355.270862060     A.U. after   11 cycles
 SCF Done:  E(RB3LYP) =  -355.265660493     A.U. after   12 cycles
 SCF Done:  E(RB3LYP) =  -355.271398060     A.U. after   11 cycles
 SCF Done:  E(RB3LYP) =  -355.273261516     A.U. after   12 cycles
 SCF Done:  E(RB3LYP) =  -355.251369557     A.U. after   12 cycles
 SCF Done:  E(RB3LYP) =  -355.274896054     A.U. after   12 cycles
 SCF Done:  E(RB3LYP) =  -355.275149277     A.U. after   10 cycles
 SCF Done:  E(RB3LYP) =  -355.275656764     A.U. after   11 cycles
 SCF Done:  E(RB3LYP) =  -355.275724676     A.U. after   10 cycles
 SCF Done:  E(RB3LYP) =  -355.275739394     A.U. after   10 cycles
 SCF Done:  E(RB3LYP) =  -355.275745145     A.U. after    9 cycles
 SCF Done:  E(RB3LYP) =  -355.275745944     A.U. after    7 cycles
 Optimization completed.
    -- Stationary point found.
 Normal termination of Gaussian 16 at Mon May 31 15:24:02 2021.

 ----------------------------------------------------------------------
 #N Geom=AllCheck Guess=TCheck SCRF=Check GenChk RB3LYP/6-31G(2df,p) Fr
 eq
 ----------------------------------------------------------------------

 Structure from the checkpoint file:  "NNC1CNN1N.chk"
 -------------------
 Title Card Required
 -------------------
 Charge =  0 Multiplicity = 1

                         Standard orientation:
 ---------------------------------------------------------------------
 Center     Atomic      Atomic             Coordinates (Angstroms)
 Number     Number       Type             X           Y           Z
 ---------------------------------------------------------------------
      1          7           0        2.421394   -0.352720    0.142328
      2          7           0        1.483376    0.665693   -0.217785
      3          6           0        0.194987    0.405254    0.335023
      4          6           0       -0.898605    1.474914    0.186711
      5          7           0       -1.865150    0.371301   -0.056375
      6          7           0       -0.714663   -0.521055   -0.415611
      7          7           0       -0.791139   -1.809492    0.142244
      8          1           0        3.350517    0.019357   -0.022312
      9          1           0        2.305478   -1.180232   -0.441732
     10          1           0        1.389676    0.755097   -1.229468
     11          1           0        0.333918    0.071237    1.368314
     12          1           0       -0.720392    2.125663   -0.677711
     13          1           0       -1.123762    2.085840    1.062634
     14          1           0       -2.416289    0.524701   -0.899714
     15          1           0       -1.338237   -2.390904   -0.486409
     16          1           0       -1.295927   -1.767840    1.032386
 ---------------------------------------------------------------------

 SCF Done:  E(RB3LYP) =  -355.275745944     A.U. after    1 cycles

 The electronic state is 1-A.
 Alpha  occ. eigenvalues --  -14.35994 -14.33828 -14.33342 -14.33192 -14.33078
 Alpha  occ. eigenvalues --  -10.22744 -10.20583  -1.00879  -0.95174  -0.87531
 Alpha  occ. eigenvalues --   -0.78423  -0.70055  -0.67631  -0.57094  -0.52518
 Alpha  occ. eigenvalues --   -0.50904  -0.48590  -0.47060  -0.45569  -0.44317
 Alpha  occ. eigenvalues --   -0.39843  -0.37754  -0.34011  -0.29306  -0.26485
 Alpha  occ. eigenvalues --   -0.24654  -0.22831  -0.21036
 Alpha virt. eigenvalues --    0.08196   0.08782   0.09733   0.10999   0.12805
 Alpha virt. eigenvalues --    0.13884   0.15455   0.16524   0.17295   0.18526
 Alpha virt. eigenvalues --    0.20162   0.21757   0.22859   0.25240   0.29485

 Mulliken charges:
               1
     1  N   -0.466382
     2  N   -0.295314
     3  C    0.183892
     4  C   -0.218710
     5  N   -0.304397
     6  N   -0.134578
     7  N   -0.434873
     8  H    0.238573
     9  H    0.236529
    10  H    0.211080
    11  H    0.092863
    12  H    0.097561
    13  H    0.116161
    14  H    0.224721
    15  H    0.236378
    16  H    0.216494
 Sum of Mulliken charges =  -0.00000

 Dipole moment (field-independent basis, Debye):
    X=             -0.3788    Y=              0.1281    Z=             -1.7711  Tot=              1.8157
 Quadrupole moment (field-independent basis, Debye-Ang):
   XX=            -38.5667   YY=            -40.9234   ZZ=            -40.9114
   XY=              0.5574   XZ=             -2.0003   YZ=              0.0426

  Exact polarizability:  65.740  -1.631  64.165   0.418  -1.303  48.093
 Approx polarizability:  86.002  -2.453  89.442   1.404  -1.981  74.027

                      1                      2                      3
                      A                      A                      A
 Frequencies --     98.1920               121.6419               225.7195
 Red. masses --      3.4064                 3.2313                 1.8538
 Frc consts  --      0.0194                 0.0282                 0.0556
 IR Inten    --      6.3204                 6.5651                16.8659

                      4                      5                      6
                      A                      A                      A
 Frequencies --    281.9104               352.8970               373.6713
 Red. masses --      1.5443                 1.4431                 2.2371
 Frc consts  --      0.0723                 0.1059                 0.1840
 IR Inten    --     43.4967                10.4754                 8.5031

                      7                      8                      9
                      A                      A                      A
 Frequencies --    427.5777               460.9988               537.3987
 Red. masses --      2.1447                 3.0363                 2.9229
 Frc consts  --      0.2310                 0.3802                 0.4973
 IR Inten    --     21.6923                 7.6308                18.9663

                     10                     11                     12
                      A                      A                      A
 Frequencies --    689.1256               775.8068               845.4513
 Red. masses --      3.5227                 2.3837                 2.3022
 Frc consts  --      0.9857                 0.8453                 0.9695
 IR Inten    --     23.1951                34.3654                50.1476

                     13                     14                     15
                      A                      A                      A
 Frequencies --    862.3018               915.4709               952.4068
 Red. masses --      2.0554                 2.3383                 2.0775
 Frc consts  --      0.9005                 1.1546                 1.1103
 IR Inten    --     19.8161               139.6707                34.0783

                     16                     17                     18
                      A                      A                      A
 Frequencies --    967.8197              1002.0098              1041.0183
 Red. masses --      2.2525                 2.1736                 1.6350
 Frc consts  --      1.2431                 1.2858                 1.0439
 IR Inten    --    114.2820                29.9814                 2.6591

                     19                     20                     21
                      A                      A                      A
 Frequencies --   1093.8518              1145.3137              1185.9171
 Red. masses --      2.0892                 2.0834                 1.3050
 Frc consts  --      1.4728                 1.6102                 1.0814
 IR Inten    --     27.9125                19.4532                 3.1552

                     22                     23                     24
                      A                      A                      A
 Frequencies --   1221.3132              1238.9056              1277.5993
 Red. masses --      1.9507                 2.0676                 1.6007
 Frc consts  --      1.7143                 1.8698                 1.5394
 IR Inten    --     18.3098                 2.7479                 3.5560

                     25                     26                     27
                      A                      A                      A
 Frequencies --   1288.4742              1330.8539              1347.9385
 Red. masses --      1.2590                 1.2557                 1.2782
 Frc consts  --      1.2314                 1.3103                 1.3683
 IR Inten    --     12.3183                15.0208                 6.3986

                     28                     29                     30
                      A                      A                      A
 Frequencies --   1348.7609              1385.2734              1509.0530
 Red. masses --      1.4522                 1.3813                 1.2118
 Frc consts  --      1.5565                 1.5618                 1.6259
 IR Inten    --     10.6823                10.7372                 9.3571

                     31                     32                     33
                      A                      A                      A
 Frequencies --   1511.6080              1671.0827              1675.0483
 Red. masses --      1.1209                 1.0880                 1.0814
 Frc consts  --      1.5090                 1.7901                 1.7878
 IR Inten    --      4.7010                12.9508                23.3729

                     34                     35                     36
                      A                      A                      A
 Frequencies --   3031.4169              3066.8623              3110.0927
 Red. masses --      1.0650                 1.0846                 1.1014
 Frc consts  --      5.7664                 6.0104                 6.2769
 IR Inten    --     43.6940                13.2502                32.9576

                     37                     38                     39
                      A                      A                      A
 Frequencies --   3386.9436              3428.6079              3441.2875
 Red. masses --      1.0543                 1.0674                 1.0578
 Frc consts  --      7.1256                 7.3927                 7.3807
 IR Inten    --     12.0339                12.4845                 2.1393

                     40                     41                     42
                      A                      A                      A
 Frequencies --   3454.4222              3529.7996              3559.0623
 Red. masses --      1.0767                 1.0855                 1.0902
 Frc consts  --      7.5703                 7.9686                 8.1361
 IR Inten    --      2.8674                 0.3583                 0.3826

 - Thermochemistry -
 -------------------
 Temperature   298.150 Kelvin.  Pressure   1.00000 Atm.
 Atom     1 has atomic number  7 and mass  14.00307

 Molecular mass:   103.08580 amu.
 Principal axes and moments of inertia in atomic units:
                           1         2         3
     Eigenvalues --   430.26047 822.774461161.76275
           X            0.99991  -0.01128  -0.00754
           Y            0.01122   0.99991  -0.00689
           Z            0.00762   0.00680   0.99995
 This molecule is an asymmetric top.
 Rotational symmetry number  1.
 Rotational temperatures (Kelvin)      0.20131     0.10527     0.07455
 Rotational constants (GHZ):           4.19453     2.19348     1.55345
 Zero-point vibrational energy     365883.3 (Joules/Mol)
                                   87.44820 (Kcal/Mol)
 Warning -- explicit consideration of   9 degrees of freedom as
           vibrations may cause significant error
 Vibrational temperatures:    141.28   175.02   324.76   405.61   507.74
          (Kelvin)            537.63   615.19   663.27   773.20   991.50
                             1116.21  1216.42  1240.66  1317.16  1370.30
                             1392.48  1441.67  1497.79  1573.81  1647.85
                             1706.27  1757.20  1782.51  1838.18  1853.83
                             1914.80  1939.38  1940.57  1993.10  2171.19
                             2174.87  2404.32  2410.02  4361.53  4412.53
                             4474.73  4873.06  4933.00  4951.25  4970.14
                             5078.59  5120.70

 Zero-point correction=                           0.139358 (Hartree/Particle)
 Thermal correction to Energy=                    0.146721
 Thermal correction to Enthalpy=                  0.147665
 Thermal correction to Gibbs Free Energy=         0.107966
 Sum of electronic and zero-point Energies=           -355.136388
 Sum of electronic and thermal Energies=              -355.129025
 Sum of electronic and thermal Enthalpies=            -355.128081
 Sum of electronic and thermal Free Energies=         -355.167780

                     E (Thermal)             CV                S
                      KCal/Mol        Cal/Mol-Kelvin    Cal/Mol-Kelvin
 Total                   92.069             27.222             83.555
 Electronic               0.000              0.000              0.000
 Translational            0.889              2.981             39.809
 Rotational               0.889              2.981             27.511
 Vibrational             90.291             21.260             16.236
 Vibration     1          0.604              1.950              3.490
 Vibration     2          0.609              1.931              3.074
 Vibration     3          0.650              1.802              1.913
 Vibration     4          0.681              1.707              1.522
 Vibration     5          0.729              1.569              1.153
 Vibration     6          0.745              1.526              1.065
 Vibration     7          0.789              1.410              0.867
 Vibration     8          0.819              1.337              0.763
 Vibration     9          0.892              1.167              0.571

 Optimization completed.
    -- Stationary point found.
 Normal termination of Gaussian 16 at Mon May 31 15:45:13 2021.
