 Gaussian 16, Revision A.03,
 Gaussian 16:  ES64L-G16RevA.03 25-Dec-2016

 -----------------------------
 # opt freq b3lyp/6-31g(2df,p)
 -----------------------------

 -------------------
 Title Card Required
 -------------------
 Symbolic Z-matrix:
 Charge =  0 Multiplicity = 1

 SCF Done:  E(RB3LYP) =  -432.691331574     A.U. after   14 cycles
 SCF Done:  E(RB3LYP) =  -432.700182019     A.U. after   12 cycles
 SCF Done:  E(RB3LYP) =  -432.706055316     A.U. after   12 cycles
 SCF Done:  E(RB3LYP) =  -432.708649396     A.U. after   12 cycles
 SCF Done:  E(RB3LYP) =  -432.709991821     A.U. after   12 cycles
 SCF Done:  E(RB3LYP) =  -432.710275488     A.U. after   11 cycles
 SCF Done:  E(RB3LYP) =  -432.710335901     A.U. after   10 cycles
 SCF Done:  E(RB3LYP) =  -432.710353576     A.U. after   10 cycles
 SCF Done:  E(RB3LYP) =  -432.710357874     A.U. after    9 cycles
 SCF Done:  E(RB3LYP) =  -432.710358987     A.U. after    8 cycles
 SCF Done:  E(RB3LYP) =  -432.710359400     A.U. after    8 cycles
 SCF Done:  E(RB3LYP) =  -432.710359587     A.U. after    7 cycles
 SCF Done:  E(RB3LYP) =  -432.710359715     A.U. after    7 cycles
 SCF Done:  E(RB3LYP) =  -432.710359761     A.U. after    7 cycles
 Optimization completed.
    -- Stationary point found.
 Normal termination of Gaussian 16 at Mon May 31 18:25:51 2021.

 ----------------------------------------------------------------------
 #N Geom=AllCheck Guess=TCheck SCRF=Check GenChk RB3LYP/6-31G(2df,p) Fr
 eq
 ----------------------------------------------------------------------

 Structure from the checkpoint file:  "NNCCC1CdNNN1.chk"
 -------------------
 Title Card Required
 -------------------
 Charge =  0 Multiplicity = 1

                         Standard orientation:
 ---------------------------------------------------------------------
 Center     Atomic      Atomic             Coordinates (Angstroms)
 Number     Number       Type             X           Y           Z
 ---------------------------------------------------------------------
      1          7           0       -3.488589   -0.914251   -0.124996
      2          7           0       -2.686818    0.268243   -0.084566
      3          6           0       -1.276246   -0.081554    0.030890
      4          6           0       -0.425593    1.190817    0.037752
      5          6           0        1.094532    0.957239    0.082820
      6          6           0        1.589868    0.016419    1.162758
      7          7           0        2.346116   -0.914515    0.732596
      8          7           0        2.395888   -0.859152   -0.664247
      9          7           0        1.632290    0.298547   -1.129010
     10          1           0       -4.374877   -0.667380   -0.552681
     11          1           0       -3.690291   -1.263027    0.813275
     12          1           0       -2.946642    0.861304    0.703308
     13          1           0       -1.038514   -0.718810   -0.827307
     14          1           0       -1.052919   -0.684978    0.930102
     15          1           0       -0.693402    1.804950    0.908162
     16          1           0       -0.670281    1.792766   -0.844985
     17          1           0        1.567243    1.943657    0.222728
     18          1           0        1.382159    0.117520    2.221825
     19          1           0        3.373130   -0.731560   -0.920773
     20          1           0        0.856816   -0.104085   -1.647407
 ---------------------------------------------------------------------

 SCF Done:  E(RB3LYP) =  -432.710359761     A.U. after    1 cycles

 The electronic state is 1-A.
 Alpha  occ. eigenvalues --  -14.37135 -14.35355 -14.34246 -14.34181 -14.33657
 Alpha  occ. eigenvalues --  -10.22579 -10.21374 -10.20705 -10.19411  -1.02927
 Alpha  occ. eigenvalues --   -0.95889  -0.87057  -0.82135  -0.78721  -0.71614
 Alpha  occ. eigenvalues --   -0.64768  -0.60442  -0.57997  -0.51982  -0.50227
 Alpha  occ. eigenvalues --   -0.49764  -0.48323  -0.45546  -0.44813  -0.42393
 Alpha  occ. eigenvalues --   -0.41400  -0.38905  -0.36282  -0.35177  -0.34101
 Alpha  occ. eigenvalues --   -0.28436  -0.28087  -0.25547  -0.23317  -0.20685
 Alpha virt. eigenvalues --    0.00365   0.06857   0.08909   0.10118   0.10328
 Alpha virt. eigenvalues --    0.11898   0.13474   0.14958   0.15258   0.16180
 Alpha virt. eigenvalues --    0.16287   0.17439   0.19702   0.20770   0.21342

 Mulliken charges:
               1
     1  N   -0.463180
     2  N   -0.290513
     3  C   -0.090742
     4  C   -0.248234
     5  C   -0.019245
     6  C    0.003604
     7  N   -0.152298
     8  N   -0.228775
     9  N   -0.308488
    10  H    0.241797
    11  H    0.221666
    12  H    0.209292
    13  H    0.119647
    14  H    0.082383
    15  H    0.096626
    16  H    0.123828
    17  H    0.089133
    18  H    0.117591
    19  H    0.255139
    20  H    0.240769
 Sum of Mulliken charges =  -0.00000

 Dipole moment (field-independent basis, Debye):
    X=             -2.1707    Y=              1.9960    Z=              1.7131  Tot=              3.4104
 Quadrupole moment (field-independent basis, Debye-Ang):
   XX=            -48.1341   YY=            -58.4638   ZZ=            -53.0623
   XY=              2.4083   XZ=             -5.7114   YZ=              2.2442

  Exact polarizability:  91.451  -4.966  70.056  -2.996   2.799  71.057
 Approx polarizability: 115.425 -13.930 111.965  -6.441   8.700 115.384

                      1                      2                      3
                      A                      A                      A
 Frequencies --     56.9620                69.5609                79.7993
 Red. masses --      3.4914                 2.2589                 3.7000
 Frc consts  --      0.0067                 0.0064                 0.0139
 IR Inten    --      1.9911                 8.5233                 2.3718

                      4                      5                      6
                      A                      A                      A
 Frequencies --    146.1742               168.4088               265.0844
 Red. masses --      2.8263                 3.1207                 2.3147
 Frc consts  --      0.0356                 0.0521                 0.0958
 IR Inten    --      2.6468                 4.2810                11.1752

                      7                      8                      9
                      A                      A                      A
 Frequencies --    298.5730               310.6224               444.8460
 Red. masses --      1.5670                 2.2407                 4.0818
 Frc consts  --      0.0823                 0.1274                 0.4759
 IR Inten    --     23.1420                 6.7905                34.0856

                     10                     11                     12
                      A                      A                      A
 Frequencies --    474.1685               624.1355               739.8068
 Red. masses --      3.3995                 3.2422                 2.2460
 Frc consts  --      0.4503                 0.7441                 0.7243
 IR Inten    --      6.2862                14.7138                33.4604

                     13                     14                     15
                      A                      A                      A
 Frequencies --    777.0811               787.8004               802.9021
 Red. masses --      1.3357                 4.2829                 2.9881
 Frc consts  --      0.4752                 1.5661                 1.1349
 IR Inten    --     13.9992                 9.3006                83.0654

                     16                     17                     18
                      A                      A                      A
 Frequencies --    816.2865               839.5473               896.0403
 Red. masses --      1.7169                 1.8785                 2.1431
 Frc consts  --      0.6740                 0.7801                 1.0138
 IR Inten    --     33.3127                40.8049                 8.1170

                     19                     20                     21
                      A                      A                      A
 Frequencies --    920.1349               946.3696               979.6829
 Red. masses --      2.9516                 1.6088                 2.7507
 Frc consts  --      1.4724                 0.8489                 1.5555
 IR Inten    --      1.6804               114.0824                43.5480

                     22                     23                     24
                      A                      A                      A
 Frequencies --   1024.7890              1054.1794              1068.8845
 Red. masses --      2.3638                 1.8150                 2.1526
 Frc consts  --      1.4626                 1.1884                 1.4490
 IR Inten    --      7.6927                24.7338                 3.2743

                     25                     26                     27
                      A                      A                      A
 Frequencies --   1112.5858              1137.9687              1162.9439
 Red. masses --      2.5461                 1.8613                 2.1137
 Frc consts  --      1.8569                 1.4202                 1.6843
 IR Inten    --      9.1354                49.3772                 3.4597

                     28                     29                     30
                      A                      A                      A
 Frequencies --   1190.5806              1236.8881              1284.4645
 Red. masses --      1.9891                 1.3911                 1.3904
 Frc consts  --      1.6612                 1.2540                 1.3516
 IR Inten    --     11.2888                 8.3148                 3.9370

                     31                     32                     33
                      A                      A                      A
 Frequencies --   1291.5789              1298.7602              1326.9467
 Red. masses --      1.3214                 1.2155                 1.3071
 Frc consts  --      1.2987                 1.2080                 1.3560
 IR Inten    --      3.2549                 2.3945                 9.1717

                     34                     35                     36
                      A                      A                      A
 Frequencies --   1341.8990              1364.5927              1399.2178
 Red. masses --      1.3765                 1.3040                 1.1674
 Frc consts  --      1.4604                 1.4307                 1.3466
 IR Inten    --      0.3248                 8.2080                 7.5661

                     37                     38                     39
                      A                      A                      A
 Frequencies --   1417.6560              1471.0449              1488.9830
 Red. masses --      1.4503                 1.0946                 1.0864
 Frc consts  --      1.7173                 1.3956                 1.4191
 IR Inten    --      2.5590                17.3959                 0.7580

                     40                     41                     42
                      A                      A                      A
 Frequencies --   1498.7810              1517.4803              1671.8775
 Red. masses --      1.1634                 1.0874                 1.0853
 Frc consts  --      1.5398                 1.4753                 1.7874
 IR Inten    --      2.1959                 2.4471                 8.4523

                     43                     44                     45
                      A                      A                      A
 Frequencies --   1682.0468              2933.6312              2947.9894
 Red. masses --      7.9175                 1.0733                 1.0825
 Frc consts  --     13.1982                 5.4423                 5.5429
 IR Inten    --      3.5182                64.6072                50.5758

                     46                     47                     48
                      A                      A                      A
 Frequencies --   3020.5720              3060.9402              3074.6236
 Red. masses --      1.0653                 1.0865                 1.0959
 Frc consts  --      5.7266                 5.9976                 6.1040
 IR Inten    --     31.0828                11.2023                31.8869

                     49                     50                     51
                      A                      A                      A
 Frequencies --   3204.0735              3407.5195              3425.9180
 Red. masses --      1.0941                 1.0603                 1.0685
 Frc consts  --      6.6179                 7.2535                 7.3891
 IR Inten    --      4.7902                23.6042                 4.4995

                     52                     53                     54
                      A                      A                      A
 Frequencies --   3471.7885              3498.2165              3550.9691
 Red. masses --      1.0755                 1.0756                 1.0867
 Frc consts  --      7.6379                 7.7556                 8.0732
 IR Inten    --      2.8968                 2.1981                 0.5170

 - Thermochemistry -
 -------------------
 Temperature   298.150 Kelvin.  Pressure   1.00000 Atm.
 Atom     1 has atomic number  7 and mass  14.00307

 Molecular mass:   129.10145 amu.
 Principal axes and moments of inertia in atomic units:
                           1         2         3
     Eigenvalues --   500.207012339.428812402.36567
           X            0.99993   0.00947  -0.00665
           Y           -0.00885   0.99610   0.08780
           Z            0.00746  -0.08773   0.99612
 This molecule is an asymmetric top.
 Rotational symmetry number  1.
 Warning -- assumption of classical behavior for rotation
           may cause significant error
 Rotational temperatures (Kelvin)      0.17316     0.03702     0.03605
 Rotational constants (GHZ):           3.60799     0.77145     0.75124
 Zero-point vibrational energy     455085.6 (Joules/Mol)
                                  108.76808 (Kcal/Mol)
 Warning -- explicit consideration of  10 degrees of freedom as
           vibrations may cause significant error
 Vibrational temperatures:     81.96   100.08   114.81   210.31   242.30
          (Kelvin)            381.40   429.58   446.92   640.03   682.22
                              897.99  1064.42  1118.05  1133.47  1155.20
                             1174.45  1207.92  1289.20  1323.87  1361.61
                             1409.55  1474.44  1516.73  1537.89  1600.76
                             1637.28  1673.22  1712.98  1779.61  1848.06
                             1858.29  1868.63  1909.18  1930.69  1963.34
                             2013.16  2039.69  2116.51  2142.31  2156.41
                             2183.32  2405.46  2420.09  4220.84  4241.50
                             4345.93  4404.01  4423.70  4609.95  4902.66
                             4929.13  4995.13  5033.15  5109.05

 Zero-point correction=                           0.173333 (Hartree/Particle)
 Thermal correction to Energy=                    0.182734
 Thermal correction to Enthalpy=                  0.183679
 Thermal correction to Gibbs Free Energy=         0.137807
 Sum of electronic and zero-point Energies=           -432.537027
 Sum of electronic and thermal Energies=              -432.527625
 Sum of electronic and thermal Enthalpies=            -432.526681
 Sum of electronic and thermal Free Energies=         -432.572552

                     E (Thermal)             CV                S
                      KCal/Mol        Cal/Mol-Kelvin    Cal/Mol-Kelvin
 Total                  114.668             33.730             96.544
 Electronic               0.000              0.000              0.000
 Translational            0.889              2.981             40.479
 Rotational               0.889              2.981             29.421
 Vibrational            112.890             27.769             26.644
 Vibration     1          0.596              1.975              4.560
 Vibration     2          0.598              1.969              4.166
 Vibration     3          0.600              1.963              3.896
 Vibration     4          0.617              1.907              2.721
 Vibration     5          0.625              1.881              2.453
 Vibration     6          0.671              1.737              1.628
 Vibration     7          0.692              1.676              1.425
 Vibration     8          0.699              1.653              1.359
 Vibration     9          0.804              1.372              0.812
 Vibration    10          0.831              1.307              0.726

                           ! Non-Optimized Parameters !
 Normal termination of Gaussian 16 at Mon May 31 18:52:18 2021.
