 Gaussian 16, Revision A.03,
 Gaussian 16:  ES64L-G16RevA.03 25-Dec-2016

 -----------------------------
 # opt freq b3lyp/6-31g(2df,p)
 -----------------------------

 -------------------
 Title Card Required
 -------------------
 Symbolic Z-matrix:
 Charge =  0 Multiplicity = 1

 SCF Done:  E(RB3LYP) =  -355.308252603     A.U. after   13 cycles
 SCF Done:  E(RB3LYP) =  -355.316000882     A.U. after   12 cycles
 SCF Done:  E(RB3LYP) =  -355.318450143     A.U. after   11 cycles
 SCF Done:  E(RB3LYP) =  -355.319869122     A.U. after   12 cycles
 SCF Done:  E(RB3LYP) =  -355.320639899     A.U. after   12 cycles
 SCF Done:  E(RB3LYP) =  -355.321708381     A.U. after   14 cycles
 SCF Done:  E(RB3LYP) =  -355.322475047     A.U. after   13 cycles
 SCF Done:  E(RB3LYP) =  -355.322962631     A.U. after   12 cycles
 SCF Done:  E(RB3LYP) =  -355.323195641     A.U. after   11 cycles
 SCF Done:  E(RB3LYP) =  -355.323227255     A.U. after   10 cycles
 SCF Done:  E(RB3LYP) =  -355.323235778     A.U. after   10 cycles
 SCF Done:  E(RB3LYP) =  -355.323237738     A.U. after    9 cycles
 SCF Done:  E(RB3LYP) =  -355.323237935     A.U. after    7 cycles
 Optimization completed.
    -- Stationary point found.
 Normal termination of Gaussian 16 at Mon May 31 16:05:33 2021.

 ----------------------------------------------------------------------
 #N Geom=AllCheck Guess=TCheck SCRF=Check GenChk RB3LYP/6-31G(2df,p) Fr
 eq
 ----------------------------------------------------------------------

 Structure from the checkpoint file:  "NNdCCpNpNN.chk"
 -------------------
 Title Card Required
 -------------------
 Charge =  0 Multiplicity = 1

                         Standard orientation:
 ---------------------------------------------------------------------
 Center     Atomic      Atomic             Coordinates (Angstroms)
 Number     Number       Type             X           Y           Z
 ---------------------------------------------------------------------
      1          7           0        3.101652   -0.384079   -0.063500
      2          7           0        1.858414   -0.183254    0.480526
      3          6           0        0.884820    0.063119   -0.303992
      4          6           0       -0.512744    0.240759    0.229933
      5          7           0       -1.075077    1.575236   -0.002372
      6          7           0       -1.396623   -0.712943   -0.438611
      7          7           0       -2.702123   -0.822882    0.133241
      8          1           0        3.816240   -0.130120    0.604872
      9          1           0        3.254126    0.071301   -0.962931
     10          1           0        1.015330    0.173409   -1.390937
     11          1           0       -0.475163    0.092747    1.323423
     12          1           0       -1.017716    1.789483   -0.995641
     13          1           0       -0.521611    2.270342    0.489595
     14          1           0       -0.979768   -1.637061   -0.416216
     15          1           0       -3.191582    0.028017   -0.128655
     16          1           0       -2.636016   -0.785939    1.155860
 ---------------------------------------------------------------------

 SCF Done:  E(RB3LYP) =  -355.323237935     A.U. after    1 cycles

 The electronic state is 1-A.
 Alpha  occ. eigenvalues --  -14.35995 -14.35942 -14.33219 -14.32366 -14.31407
 Alpha  occ. eigenvalues --  -10.23529 -10.20755  -0.99220  -0.95832  -0.87765
 Alpha  occ. eigenvalues --   -0.80877  -0.75567  -0.64469  -0.58304  -0.53070
 Alpha  occ. eigenvalues --   -0.52001  -0.49514  -0.47707  -0.45049  -0.42979
 Alpha  occ. eigenvalues --   -0.41086  -0.38651  -0.38084  -0.28101  -0.25796
 Alpha  occ. eigenvalues --   -0.24649  -0.23321  -0.22203
 Alpha virt. eigenvalues --    0.00324   0.07977   0.09205   0.10533   0.12583
 Alpha virt. eigenvalues --    0.13339   0.15251   0.15870   0.16085   0.18489
 Alpha virt. eigenvalues --    0.21079   0.23076   0.25742   0.26168   0.30025

 Mulliken charges:
               1
     1  N   -0.417877
     2  N   -0.138950
     3  C   -0.007136
     4  C    0.013622
     5  N   -0.494271
     6  N   -0.277525
     7  N   -0.460537
     8  H    0.258739
     9  H    0.231097
    10  H    0.071703
    11  H    0.070804
    12  H    0.225238
    13  H    0.228721
    14  H    0.233236
    15  H    0.248229
    16  H    0.214908
 Sum of Mulliken charges =  -0.00000

 Dipole moment (field-independent basis, Debye):
    X=              2.4936    Y=              2.1432    Z=             -0.2527  Tot=              3.2977
 Quadrupole moment (field-independent basis, Debye-Ang):
   XX=            -40.1417   YY=            -42.6503   ZZ=            -41.1526
   XY=              1.1090   XZ=             -3.8643   YZ=             -1.8674

  Exact polarizability:  90.605  -4.097  49.513   0.518  -1.791  52.534
 Approx polarizability: 119.724 -10.023  72.281   7.371  -3.503  84.100

                      1                      2                      3
                      A                      A                      A
 Frequencies --     72.2483               130.3628               170.8193
 Red. masses --      3.4898                 2.6120                 2.3629
 Frc consts  --      0.0107                 0.0262                 0.0406
 IR Inten    --      3.3591                 8.0578                16.0768

                      4                      5                      6
                      A                      A                      A
 Frequencies --    232.9818               267.1852               287.6573
 Red. masses --      3.4764                 1.4201                 1.0850
 Frc consts  --      0.1112                 0.0597                 0.0529
 IR Inten    --      8.9312                18.8538                44.0336

                      7                      8                      9
                      A                      A                      A
 Frequencies --    350.1101               393.6438               434.3436
 Red. masses --      2.2663                 3.8245                 1.3537
 Frc consts  --      0.1637                 0.3492                 0.1505
 IR Inten    --     22.7394                 2.1715                11.1664

                     10                     11                     12
                      A                      A                      A
 Frequencies --    450.6036               558.9583               613.9064
 Red. masses --      3.0047                 2.5803                 2.6987
 Frc consts  --      0.3594                 0.4750                 0.5993
 IR Inten    --     25.2906                 8.4277                 9.4961

                     13                     14                     15
                      A                      A                      A
 Frequencies --    716.5517               798.3127               884.4634
 Red. masses --      1.5525                 1.9163                 1.5876
 Frc consts  --      0.4697                 0.7195                 0.7317
 IR Inten    --    353.9473               119.7777               159.9997

                     16                     17                     18
                      A                      A                      A
 Frequencies --    940.3766               952.4010              1006.9614
 Red. masses --      1.5180                 1.8607                 2.2798
 Frc consts  --      0.7909                 0.9944                 1.3620
 IR Inten    --      7.8132                35.4200                39.5439

                     19                     20                     21
                      A                      A                      A
 Frequencies --   1097.5358              1136.3431              1144.8128
 Red. masses --      2.3456                 3.0308                 2.9759
 Frc consts  --      1.6647                 2.3059                 2.2979
 IR Inten    --     13.5850                18.9639                48.5183

                     22                     23                     24
                      A                      A                      A
 Frequencies --   1197.9610              1214.0578              1260.6002
 Red. masses --      1.9622                 1.3748                 1.1709
 Frc consts  --      1.6592                 1.1939                 1.0963
 IR Inten    --     55.3844                 3.5669                36.1227

                     25                     26                     27
                      A                      A                      A
 Frequencies --   1310.5954              1330.7903              1410.1301
 Red. masses --      1.4025                 1.2534                 1.3165
 Frc consts  --      1.4194                 1.3078                 1.5423
 IR Inten    --     17.3649                 8.5232                10.9770

                     28                     29                     30
                      A                      A                      A
 Frequencies --   1416.7521              1504.8312              1637.8879
 Red. masses --      1.4883                 1.1673                 1.1046
 Frc consts  --      1.7601                 1.5575                 1.7460
 IR Inten    --      7.9622                 7.7659                28.1139

                     31                     32                     33
                      A                      A                      A
 Frequencies --   1657.7734              1693.3035              1717.6165
 Red. masses --      1.1502                 1.0713                 5.6663
 Frc consts  --      1.8625                 1.8098                 9.8492
 IR Inten    --     26.1962                15.4127                12.8330

                     34                     35                     36
                      A                      A                      A
 Frequencies --   2952.5465              3007.7227              3364.8564
 Red. masses --      1.0822                 1.0854                 1.0594
 Frc consts  --      5.5586                 5.7851                 7.0672
 IR Inten    --     44.3087                48.8481                19.4227

                     37                     38                     39
                      A                      A                      A
 Frequencies --   3436.4578              3477.7636              3527.6666
 Red. masses --      1.0526                 1.0496                 1.0769
 Frc consts  --      7.3235                 7.4799                 7.8956
 IR Inten    --      4.1866                 0.5883                 1.3466

                     40                     41                     42
                      A                      A                      A
 Frequencies --   3543.2354              3570.8015              3611.8762
 Red. masses --      1.0780                 1.0916                 1.0901
 Frc consts  --      7.9738                 8.2003                 8.3786
 IR Inten    --      3.3050                 0.9769                13.7962

 - Thermochemistry -
 -------------------
 Temperature   298.150 Kelvin.  Pressure   1.00000 Atm.
 Atom     1 has atomic number  7 and mass  14.00307

 Molecular mass:   103.08580 amu.
 Principal axes and moments of inertia in atomic units:
                           1         2         3
     Eigenvalues --   293.258341440.129021621.29392
           X            0.99993   0.00103  -0.01160
           Y           -0.00130   0.99973  -0.02304
           Z            0.01157   0.02305   0.99967
 This molecule is an asymmetric top.
 Rotational symmetry number  1.
 Rotational temperatures (Kelvin)      0.29535     0.06014     0.05342
 Rotational constants (GHZ):           6.15410     1.25318     1.11315
 Zero-point vibrational energy     361785.5 (Joules/Mol)
                                   86.46880 (Kcal/Mol)
 Warning -- explicit consideration of  12 degrees of freedom as
           vibrations may cause significant error
 Vibrational temperatures:    103.95   187.56   245.77   335.21   384.42
          (Kelvin)            413.87   503.73   566.37   624.92   648.32
                              804.22   883.27  1030.96  1148.59  1272.55
                             1352.99  1370.29  1448.79  1579.11  1634.94
                             1647.13  1723.60  1746.76  1813.72  1885.65
                             1914.71  2028.86  2038.39  2165.12  2356.56
                             2385.17  2436.29  2471.27  4248.06  4327.44
                             4841.28  4944.30  5003.73  5075.53  5097.93
                             5137.59  5196.68

 Zero-point correction=                           0.137797 (Hartree/Particle)
 Thermal correction to Energy=                    0.146199
 Thermal correction to Enthalpy=                  0.147143
 Thermal correction to Gibbs Free Energy=         0.105165
 Sum of electronic and zero-point Energies=           -355.185441
 Sum of electronic and thermal Energies=              -355.177039
 Sum of electronic and thermal Enthalpies=            -355.176095
 Sum of electronic and thermal Free Energies=         -355.218073

                     E (Thermal)             CV                S
                      KCal/Mol        Cal/Mol-Kelvin    Cal/Mol-Kelvin
 Total                   91.741             30.169             88.352
 Electronic               0.000              0.000              0.000
 Translational            0.889              2.981             39.809
 Rotational               0.889              2.981             28.017
 Vibrational             89.964             24.208             20.526
 Vibration     1          0.598              1.967              4.091
 Vibration     2          0.612              1.923              2.941
 Vibration     3          0.626              1.878              2.426
 Vibration     4          0.654              1.790              1.856
 Vibration     5          0.672              1.733              1.614
 Vibration     6          0.685              1.697              1.488
 Vibration     7          0.727              1.575              1.166
 Vibration     8          0.761              1.484              0.986
 Vibration     9          0.795              1.395              0.845
 Vibration    10          0.809              1.360              0.794
 Vibration    11          0.915              1.120              0.526
 Vibration    12          0.973              1.002              0.426

 Optimization completed.
    -- Stationary point found.
 Normal termination of Gaussian 16 at Mon May 31 16:20:51 2021.
