 Gaussian 16, Revision A.03,
 Gaussian 16:  ES64L-G16RevA.03 25-Dec-2016

 -----------------------------
 # opt freq b3lyp/6-31g(2df,p)
 -----------------------------

 -------------------
 Title Card Required
 -------------------
 Symbolic Z-matrix:
 Charge =  0 Multiplicity = 1

 SCF Done:  E(RB3LYP) =  -283.885882112     A.U. after   12 cycles
 SCF Done:  E(RB3LYP) =  -283.896584859     A.U. after   11 cycles
 SCF Done:  E(RB3LYP) =  -283.899561175     A.U. after   11 cycles
 SCF Done:  E(RB3LYP) =  -283.900908604     A.U. after   11 cycles
 SCF Done:  E(RB3LYP) =  -283.901126351     A.U. after   10 cycles
 SCF Done:  E(RB3LYP) =  -283.901147511     A.U. after    9 cycles
 SCF Done:  E(RB3LYP) =  -283.901149929     A.U. after    7 cycles
 SCF Done:  E(RB3LYP) =  -283.901150356     A.U. after    7 cycles
 SCF Done:  E(RB3LYP) =  -283.901150426     A.U. after    6 cycles
 Optimization completed.
    -- Stationary point found.
 Normal termination of Gaussian 16 at Mon May 31 12:00:03 2021.

 ----------------------------------------------------------------------
 #N Geom=AllCheck Guess=TCheck SCRF=Check GenChk RB3LYP/6-31G(2df,p) Fr
 eq
 ----------------------------------------------------------------------

 Structure from the checkpoint file:  "NNN1CCC1.chk"
 -------------------
 Title Card Required
 -------------------
 Charge =  0 Multiplicity = 1

                         Standard orientation:
 ---------------------------------------------------------------------
 Center     Atomic      Atomic             Coordinates (Angstroms)
 Number     Number       Type             X           Y           Z
 ---------------------------------------------------------------------
      1          7           0        2.344424    0.185238   -0.311468
      2          7           0        1.239637   -0.433581    0.341811
      3          7           0        0.031971   -0.117902   -0.298516
      4          6           0       -1.097857   -1.022421   -0.017594
      5          6           0       -2.038525    0.206617   -0.098159
      6          6           0       -0.765863    1.056401    0.129225
      7          1           0        3.142339   -0.431174   -0.198505
      8          1           0        2.582739    1.077922    0.117478
      9          1           0        1.189715   -0.132139    1.322046
     10          1           0       -1.064121   -1.442212    1.000340
     11          1           0       -1.223507   -1.839391   -0.734519
     12          1           0       -2.827397    0.280065    0.650015
     13          1           0       -2.462150    0.346740   -1.093638
     14          1           0       -0.617438    1.296735    1.197835
     15          1           0       -0.618937    1.963587   -0.464665
 ---------------------------------------------------------------------

 SCF Done:  E(RB3LYP) =  -283.901150426     A.U. after    1 cycles

 The electronic state is 1-A.
 Alpha  occ. eigenvalues --  -14.35872 -14.33183 -14.32903 -10.20334 -10.20088
 Alpha  occ. eigenvalues --  -10.18387  -0.99632  -0.89838  -0.77280  -0.67160
 Alpha  occ. eigenvalues --   -0.65554  -0.55853  -0.51356  -0.50087  -0.48213
 Alpha  occ. eigenvalues --   -0.46257  -0.40801  -0.38884  -0.36496  -0.34125
 Alpha  occ. eigenvalues --   -0.32238  -0.24827  -0.23736  -0.21671
 Alpha virt. eigenvalues --    0.07157   0.09583   0.11668   0.12009   0.13370
 Alpha virt. eigenvalues --    0.14694   0.16512   0.17863   0.18799   0.20228
 Alpha virt. eigenvalues --    0.22273   0.22781   0.23143   0.27135   0.30909

 Mulliken charges:
               1
     1  N   -0.433394
     2  N   -0.278086
     3  N   -0.004433
     4  C   -0.136400
     5  C   -0.231585
     6  C   -0.158618
     7  H    0.240506
     8  H    0.221844
     9  H    0.195468
    10  H    0.082267
    11  H    0.105273
    12  H    0.104046
    13  H    0.116993
    14  H    0.070850
    15  H    0.105268
 Sum of Mulliken charges =  -0.00000

 Dipole moment (field-independent basis, Debye):
    X=             -0.0365    Y=              0.9409    Z=              2.0664  Tot=              2.2708
 Quadrupole moment (field-independent basis, Debye-Ang):
   XX=            -31.9002   YY=            -36.8533   ZZ=            -38.0821
   XY=              1.4406   XZ=              3.2383   YZ=              0.8917

  Exact polarizability:  67.526   1.358  52.432   0.811   0.388  46.392
 Approx polarizability:  82.775   1.136  73.749   0.388   0.687  70.630

                      1                      2                      3
                      A                      A                      A
 Frequencies --     84.8483               163.5343               224.3857
 Red. masses --      3.1484                 2.2098                 1.1881
 Frc consts  --      0.0134                 0.0348                 0.0352
 IR Inten    --      1.8642                 2.2861                35.2116

                      4                      5                      6
                      A                      A                      A
 Frequencies --    286.6183               399.6198               485.2175
 Red. masses --      2.0121                 2.2853                 4.4581
 Frc consts  --      0.0974                 0.2150                 0.6184
 IR Inten    --     10.3548                 1.4119                 4.9352

                      7                      8                      9
                      A                      A                      A
 Frequencies --    664.4497               750.7561               802.0990
 Red. masses --      2.7791                 1.5060                 1.7092
 Frc consts  --      0.7229                 0.5001                 0.6479
 IR Inten    --      8.9451                11.3098                40.7628

                     10                     11                     12
                      A                      A                      A
 Frequencies --    849.5636               921.7572               927.3343
 Red. masses --      1.1449                 2.4929                 2.3430
 Frc consts  --      0.4869                 1.2479                 1.1871
 IR Inten    --      0.2236                 4.9959                 1.6691

                     13                     14                     15
                      A                      A                      A
 Frequencies --    954.5996              1041.0521              1083.1348
 Red. masses --      2.1246                 2.3140                 3.1662
 Frc consts  --      1.1407                 1.4776                 2.1886
 IR Inten    --     41.8946                48.4137                 9.7585

                     16                     17                     18
                      A                      A                      A
 Frequencies --   1112.9525              1116.9053              1164.4515
 Red. masses --      1.2626                 1.9754                 1.9437
 Frc consts  --      0.9215                 1.4519                 1.5528
 IR Inten    --      5.7305                 5.9807                 4.6551

                     19                     20                     21
                      A                      A                      A
 Frequencies --   1203.5252              1214.2391              1230.4849
 Red. masses --      1.3196                 1.7205                 2.1063
 Frc consts  --      1.1262                 1.4946                 1.8790
 IR Inten    --     11.6186                 8.7605                 7.9580

                     22                     23                     24
                      A                      A                      A
 Frequencies --   1261.9389              1277.7938              1317.5411
 Red. masses --      1.3787                 1.3397                 1.2921
 Frc consts  --      1.2936                 1.2888                 1.3215
 IR Inten    --      3.3971                 0.3899                 0.5513

                     25                     26                     27
                      A                      A                      A
 Frequencies --   1340.3571              1486.0836              1498.1459
 Red. masses --      1.4491                 1.0944                 1.1036
 Frc consts  --      1.5338                 1.4240                 1.4594
 IR Inten    --      8.5810                 2.3781                 3.3217

                     28                     29                     30
                      A                      A                      A
 Frequencies --   1503.9732              1537.1646              1676.9354
 Red. masses --      1.0997                 1.1361                 1.0809
 Frc consts  --      1.4656                 1.5816                 1.7909
 IR Inten    --      6.3408                 9.8194                 7.1418

                     31                     32                     33
                      A                      A                      A
 Frequencies --   2937.8639              2978.9208              3069.6444
 Red. masses --      1.0696                 1.0683                 1.0905
 Frc consts  --      5.4393                 5.5853                 6.0542
 IR Inten    --     68.5404                62.9418                31.1516

                     34                     35                     36
                      A                      A                      A
 Frequencies --   3071.7568              3091.3117              3146.3046
 Red. masses --      1.0941                 1.0622                 1.1091
 Frc consts  --      6.0823                 5.9805                 6.4690
 IR Inten    --     47.3856                38.9057                25.2134

                     37                     38                     39
                      A                      A                      A
 Frequencies --   3303.7319              3443.6044              3553.9205
 Red. masses --      1.0722                 1.0515                 1.0909
 Frc consts  --      6.8950                 7.3464                 8.1183
 IR Inten    --     31.9401                10.7014                 0.4406

 - Thermochemistry -
 -------------------
 Temperature   298.150 Kelvin.  Pressure   1.00000 Atm.
 Atom     1 has atomic number  7 and mass  14.00307

 Molecular mass:    87.07965 amu.
 Principal axes and moments of inertia in atomic units:
                           1         2         3
     Eigenvalues --   191.30280 773.87433 885.38904
           X            0.99994   0.00822   0.00750
           Y           -0.00832   0.99987   0.01345
           Z           -0.00739  -0.01351   0.99988
 This molecule is an asymmetric top.
 Rotational symmetry number  1.
 Rotational temperatures (Kelvin)      0.45276     0.11192     0.09783
 Rotational constants (GHZ):           9.43395     2.33209     2.03836
 Zero-point vibrational energy     347984.8 (Joules/Mol)
                                   83.17037 (Kcal/Mol)
 Warning -- explicit consideration of   6 degrees of freedom as
           vibrations may cause significant error
 Vibrational temperatures:    122.08   235.29   322.84   412.38   574.96
          (Kelvin)            698.12   955.99  1080.17  1154.04  1222.33
                             1326.20  1334.23  1373.46  1497.84  1558.39
                             1601.29  1606.98  1675.39  1731.60  1747.02
                             1770.39  1815.65  1838.46  1895.65  1928.47
                             2138.14  2155.50  2163.88  2211.64  2412.74
                             4226.93  4286.00  4416.53  4419.57  4447.71
                             4526.83  4753.33  4954.58  5113.30

 Zero-point correction=                           0.132540 (Hartree/Particle)
 Thermal correction to Energy=                    0.139008
 Thermal correction to Enthalpy=                  0.139952
 Thermal correction to Gibbs Free Energy=         0.102429
 Sum of electronic and zero-point Energies=           -283.768610
 Sum of electronic and thermal Energies=              -283.762142
 Sum of electronic and thermal Enthalpies=            -283.761198
 Sum of electronic and thermal Free Energies=         -283.798722

                     E (Thermal)             CV                S
                      KCal/Mol        Cal/Mol-Kelvin    Cal/Mol-Kelvin
 Total                   87.229             23.191             78.975
 Electronic               0.000              0.000              0.000
 Translational            0.889              2.981             39.306
 Rotational               0.889              2.981             26.375
 Vibrational             85.451             17.230             13.295
 Vibration     1          0.601              1.960              3.775
 Vibration     2          0.623              1.887              2.509
 Vibration     3          0.649              1.804              1.923
 Vibration     4          0.684              1.699              1.494
 Vibration     5          0.766              1.471              0.964
 Vibration     6          0.841              1.283              0.696

                           ! Non-Optimized Parameters !
 Normal termination of Gaussian 16 at Mon May 31 12:13:14 2021.
