 Gaussian 16, Revision A.03,
 Gaussian 16:  ES64L-G16RevA.03 25-Dec-2016

 -----------------------------
 # opt freq b3lyp/6-31g(2df,p)
 -----------------------------

 -------------------
 Title Card Required
 -------------------
 Symbolic Z-matrix:
 Charge =  0 Multiplicity = 1

 SCF Done:  E(RB3LYP) =  -453.806068884     A.U. after   13 cycles
 SCF Done:  E(RB3LYP) =  -453.815451157     A.U. after   12 cycles
 SCF Done:  E(RB3LYP) =  -453.817887748     A.U. after   12 cycles
 SCF Done:  E(RB3LYP) =  -453.817937974     A.U. after   13 cycles
 SCF Done:  E(RB3LYP) =  -453.818936597     A.U. after   11 cycles
 SCF Done:  E(RB3LYP) =  -453.819542669     A.U. after   11 cycles
 SCF Done:  E(RB3LYP) =  -453.820351585     A.U. after   12 cycles
 SCF Done:  E(RB3LYP) =  -453.822308645     A.U. after   14 cycles
 SCF Done:  E(RB3LYP) =  -453.796393651     A.U. after   12 cycles
 SCF Done:  E(RB3LYP) =  -453.825894770     A.U. after   14 cycles
 SCF Done:  E(RB3LYP) =  -453.829297883     A.U. after   13 cycles
 SCF Done:  E(RB3LYP) =  -453.829517032     A.U. after   13 cycles
 SCF Done:  E(RB3LYP) =  -453.829577570     A.U. after   11 cycles
 SCF Done:  E(RB3LYP) =  -453.829605045     A.U. after   10 cycles
 SCF Done:  E(RB3LYP) =  -453.829613477     A.U. after   10 cycles
 SCF Done:  E(RB3LYP) =  -453.829615993     A.U. after    9 cycles
 SCF Done:  E(RB3LYP) =  -453.829616529     A.U. after    7 cycles
 SCF Done:  E(RB3LYP) =  -453.829616802     A.U. after    7 cycles
 SCF Done:  E(RB3LYP) =  -453.829616905     A.U. after    7 cycles
 Optimization completed.
    -- Stationary point found.
 Normal termination of Gaussian 16 at Mon May 31 20:16:46 2021.

 ----------------------------------------------------------------------
 #N Geom=AllCheck Guess=TCheck SCRF=Check GenChk RB3LYP/6-31G(2df,p) Fr
 eq
 ----------------------------------------------------------------------

 Structure from the checkpoint file:  "NNNCpNpCCCdO.chk"
 -------------------
 Title Card Required
 -------------------
 Charge =  0 Multiplicity = 1

                         Standard orientation:
 ---------------------------------------------------------------------
 Center     Atomic      Atomic             Coordinates (Angstroms)
 Number     Number       Type             X           Y           Z
 ---------------------------------------------------------------------
      1          7           0       -3.263983   -1.066009   -0.617717
      2          7           0       -2.921187    0.046866    0.219703
      3          7           0       -1.648198   -0.117012    0.830173
      4          6           0       -0.581471    0.284018   -0.105950
      5          7           0       -0.588933    1.714954   -0.355065
      6          6           0        0.764514   -0.149384    0.484964
      7          6           0        1.935040    0.109851   -0.475187
      8          6           0        3.273068   -0.054298    0.199967
      9          8           0        4.171855   -0.754932   -0.190112
     10          1           0       -3.821737   -0.714617   -1.389476
     11          1           0       -3.831643   -1.747418   -0.115412
     12          1           0       -3.587461    0.144999    0.979856
     13          1           0       -1.516820   -1.100587    1.076655
     14          1           0       -0.725749   -0.211744   -1.077809
     15          1           0       -0.590687    2.193048    0.544652
     16          1           0       -1.475988    1.952889   -0.789954
     17          1           0        0.725107   -1.215026    0.742303
     18          1           0        0.921005    0.394299    1.426767
     19          1           0        1.854359    1.148807   -0.823540
     20          1           0        1.897738   -0.546822   -1.349188
     21          1           0        3.386238    0.548905    1.133615
 ---------------------------------------------------------------------

 SCF Done:  E(RB3LYP) =  -453.829616905     A.U. after    1 cycles

 The electronic state is 1-A.
 Alpha  occ. eigenvalues --  -19.12923 -14.37345 -14.34722 -14.33838 -14.30416
 Alpha  occ. eigenvalues --  -10.26167 -10.23001 -10.19049 -10.18328  -1.03595
 Alpha  occ. eigenvalues --   -1.00371  -0.90297  -0.84404  -0.78599  -0.72941
 Alpha  occ. eigenvalues --   -0.66161  -0.58777  -0.56601  -0.52535  -0.50700
 Alpha  occ. eigenvalues --   -0.49638  -0.48785  -0.47258  -0.44555  -0.43806
 Alpha  occ. eigenvalues --   -0.41879  -0.40400  -0.38433  -0.35287  -0.34725
 Alpha  occ. eigenvalues --   -0.34012  -0.27204  -0.25799  -0.25056  -0.24281
 Alpha  occ. eigenvalues --   -0.24018
 Alpha virt. eigenvalues --   -0.01077   0.06092   0.09290   0.10326   0.11059
 Alpha virt. eigenvalues --    0.12097   0.13545   0.14320   0.15668   0.16562
 Alpha virt. eigenvalues --    0.16753   0.18334   0.19509   0.20071   0.22245

 Mulliken charges:
               1
     1  N   -0.454837
     2  N   -0.280818
     3  N   -0.271517
     4  C    0.097273
     5  N   -0.491607
     6  C   -0.215425
     7  C   -0.268510
     8  C    0.157365
     9  O   -0.244047
    10  H    0.246315
    11  H    0.226820
    12  H    0.232232
    13  H    0.201310
    14  H    0.082912
    15  H    0.218340
    16  H    0.233609
    17  H    0.102639
    18  H    0.103512
    19  H    0.144133
    20  H    0.116311
    21  H    0.063989
 Sum of Mulliken charges =  -0.00000

 Dipole moment (field-independent basis, Debye):
    X=             -5.2741    Y=             -0.0335    Z=              1.2490  Tot=              5.4201
 Quadrupole moment (field-independent basis, Debye-Ang):
   XX=            -56.9132   YY=            -54.3094   ZZ=            -53.9936
   XY=              8.2632   XZ=              2.0473   YZ=             -0.4409

  Exact polarizability:  99.927  -0.076  70.004   2.838   2.800  66.647
 Approx polarizability: 119.593  -5.638 106.411   1.550   5.411 102.657

                      1                      2                      3
                      A                      A                      A
 Frequencies --     45.2382                67.5075                81.6130
 Red. masses --      5.4278                 3.9686                 2.4107
 Frc consts  --      0.0065                 0.0107                 0.0095
 IR Inten    --      2.0767                 3.8633                 2.3438

                      4                      5                      6
                      A                      A                      A
 Frequencies --    100.9376               144.0107               165.0114
 Red. masses --      3.4928                 3.0123                 2.8861
 Frc consts  --      0.0210                 0.0368                 0.0463
 IR Inten    --      0.5660                 5.1246                 6.5593

                      7                      8                      9
                      A                      A                      A
 Frequencies --    243.6283               298.7997               307.6324
 Red. masses --      1.3678                 2.5665                 1.3227
 Frc consts  --      0.0478                 0.1350                 0.0738
 IR Inten    --     10.0228                16.8027                31.0243

                     10                     11                     12
                      A                      A                      A
 Frequencies --    314.0364               366.4283               468.0888
 Red. masses --      1.8477                 3.1781                 2.6487
 Frc consts  --      0.1074                 0.2514                 0.3419
 IR Inten    --     17.6857                 3.8381                 6.0910

                     13                     14                     15
                      A                      A                      A
 Frequencies --    517.4987               548.4776               585.2500
 Red. masses --      2.4038                 2.1816                 2.7496
 Frc consts  --      0.3793                 0.3867                 0.5549
 IR Inten    --     28.3144                21.8036                29.2419

                     16                     17                     18
                      A                      A                      A
 Frequencies --    761.2066               772.1045               836.9327
 Red. masses --      1.7318                 1.6665                 1.8803
 Frc consts  --      0.5912                 0.5853                 0.7760
 IR Inten    --      0.6905                 3.8532                60.5177

                     19                     20                     21
                      A                      A                      A
 Frequencies --    848.0985               900.1529               952.8673
 Red. masses --      1.9086                 2.2506                 2.0876
 Frc consts  --      0.8088                 1.0744                 1.1167
 IR Inten    --     51.5387                61.4551                62.3386

                     22                     23                     24
                      A                      A                      A
 Frequencies --    976.6561              1016.0276              1023.8558
 Red. masses --      1.8199                 2.6234                 1.7121
 Frc consts  --      1.0228                 1.5956                 1.0574
 IR Inten    --     82.2111                45.9631                 5.5933

                     25                     26                     27
                      A                      A                      A
 Frequencies --   1060.9959              1087.2590              1103.2977
 Red. masses --      1.4389                 2.3136                 2.2313
 Frc consts  --      0.9544                 1.6114                 1.6003
 IR Inten    --      5.5159                15.1048                13.6891

                     28                     29                     30
                      A                      A                      A
 Frequencies --   1170.5300              1178.6754              1190.8897
 Red. masses --      2.2340                 1.7224                 2.1214
 Frc consts  --      1.8034                 1.4099                 1.7726
 IR Inten    --     18.7540                46.2195                39.9697

                     31                     32                     33
                      A                      A                      A
 Frequencies --   1247.7495              1279.3541              1295.2427
 Red. masses --      1.3524                 1.4090                 1.1716
 Frc consts  --      1.2406                 1.3588                 1.1580
 IR Inten    --     18.1765                 4.8092                 4.1773

                     34                     35                     36
                      A                      A                      A
 Frequencies --   1328.5992              1340.5013              1385.1305
 Red. masses --      1.1996                 1.3528                 1.5024
 Frc consts  --      1.2476                 1.4323                 1.6983
 IR Inten    --      3.6086                 9.7409                 3.9618

                     37                     38                     39
                      A                      A                      A
 Frequencies --   1430.8114              1433.7557              1466.3020
 Red. masses --      1.2315                 1.2664                 1.0833
 Frc consts  --      1.4854                 1.5339                 1.3723
 IR Inten    --      5.3272                 2.6810                 1.9931

                     40                     41                     42
                      A                      A                      A
 Frequencies --   1487.4128              1490.8761              1515.7290
 Red. masses --      1.1298                 1.1101                 1.2161
 Frc consts  --      1.4727                 1.4538                 1.6461
 IR Inten    --     11.6746                 2.0056                10.7511

                     43                     44                     45
                      A                      A                      A
 Frequencies --   1668.0392              1671.0296              1834.4043
 Red. masses --      1.0833                 1.0889                10.1092
 Frc consts  --      1.7758                 1.7915                20.0427
 IR Inten    --      5.0673                21.1889               208.2904

                     46                     47                     48
                      A                      A                      A
 Frequencies --   2836.7408              2994.1659              3015.8890
 Red. masses --      1.0809                 1.0816                 1.0597
 Frc consts  --      5.1248                 5.7130                 5.6788
 IR Inten    --    118.7383                17.1374                23.5532

                     49                     50                     51
                      A                      A                      A
 Frequencies --   3027.3672              3057.1023              3100.5714
 Red. masses --      1.0629                 1.1001                 1.0998
 Frc consts  --      5.7394                 6.0576                 6.2295
 IR Inten    --     20.6200                22.5689                20.1469

                     52                     53                     54
                      A                      A                      A
 Frequencies --   3399.2905              3438.7925              3471.3542
 Red. masses --      1.0725                 1.0524                 1.0514
 Frc consts  --      7.3020                 7.3321                 7.4647
 IR Inten    --     11.1889                 7.7388                 0.7818

                     55                     56                     57
                      A                      A                      A
 Frequencies --   3486.7642              3552.0412              3555.0744
 Red. masses --      1.0745                 1.0914                 1.0880
 Frc consts  --      7.6970                 8.1130                 8.1019
 IR Inten    --      1.6277                 1.3884                 1.8394

 - Thermochemistry -
 -------------------
 Temperature   298.150 Kelvin.  Pressure   1.00000 Atm.
 Atom     1 has atomic number  7 and mass  14.00307

 Molecular mass:   132.10111 amu.
 Principal axes and moments of inertia in atomic units:
                           1         2         3
     Eigenvalues --   434.408723138.869263310.77276
           X            0.99992   0.01167   0.00473
           Y           -0.01168   0.99993   0.00312
           Z           -0.00469  -0.00317   0.99998
 This molecule is an asymmetric top.
 Rotational symmetry number  1.
 Warning -- assumption of classical behavior for rotation
           may cause significant error
 Rotational temperatures (Kelvin)      0.19938     0.02759     0.02616
 Rotational constants (GHZ):           4.15448     0.57497     0.54511
 Zero-point vibrational energy     478170.1 (Joules/Mol)
                                  114.28540 (Kcal/Mol)
 Warning -- explicit consideration of  15 degrees of freedom as
           vibrations may cause significant error
 Vibrational temperatures:     65.09    97.13   117.42   145.23   207.20
          (Kelvin)            237.41   350.53   429.91   442.61   451.83
                              527.21   673.48   744.57   789.14   842.04
                             1095.21  1110.89  1204.16  1220.22  1295.12
                             1370.96  1405.19  1461.84  1473.10  1526.54
                             1564.32  1587.40  1684.13  1695.85  1713.42
                             1795.23  1840.71  1863.57  1911.56  1928.68
                             1992.89  2058.62  2062.85  2109.68  2140.06
                             2145.04  2180.80  2399.94  2404.24  2639.30
                             4081.44  4307.94  4339.19  4355.71  4398.49
                             4461.03  4890.82  4947.66  4994.50  5016.68
                             5110.59  5114.96

 Zero-point correction=                           0.182125 (Hartree/Particle)
 Thermal correction to Energy=                    0.193026
 Thermal correction to Enthalpy=                  0.193970
 Thermal correction to Gibbs Free Energy=         0.144775
 Sum of electronic and zero-point Energies=           -453.647492
 Sum of electronic and thermal Energies=              -453.636591
 Sum of electronic and thermal Enthalpies=            -453.635646
 Sum of electronic and thermal Free Energies=         -453.684842

                     E (Thermal)             CV                S
                      KCal/Mol        Cal/Mol-Kelvin    Cal/Mol-Kelvin
 Total                  121.126             38.282            103.540
 Electronic               0.000              0.000              0.000
 Translational            0.889              2.981             40.548
 Rotational               0.889              2.981             29.891
 Vibrational            119.348             32.321             33.101
 Vibration     1          0.595              1.979              5.015
 Vibration     2          0.598              1.970              4.225
 Vibration     3          0.600              1.962              3.852
 Vibration     4          0.604              1.948              3.436
 Vibration     5          0.616              1.909              2.750
 Vibration     6          0.623              1.885              2.492
 Vibration     7          0.659              1.773              1.776
 Vibration     8          0.692              1.676              1.424
 Vibration     9          0.697              1.659              1.375
 Vibration    10          0.702              1.647              1.341
 Vibration    11          0.739              1.541              1.095
 Vibration    12          0.825              1.321              0.743
 Vibration    13          0.873              1.211              0.616
 Vibration    14          0.904              1.143              0.547
 Vibration    15          0.942              1.063              0.476

 Optimization completed.
    -- Stationary point found.
 Normal termination of Gaussian 16 at Mon May 31 20:43:24 2021.
