 Gaussian 16, Revision A.03,
 Gaussian 16:  ES64L-G16RevA.03 25-Dec-2016

 -----------------------------
 # opt freq b3lyp/6-31g(2df,p)
 -----------------------------

 -------------------
 Title Card Required
 -------------------
 Symbolic Z-matrix:
 Charge =  0 Multiplicity = 1

 SCF Done:  E(RB3LYP) =  -464.710597469     A.U. after   13 cycles
 SCF Done:  E(RB3LYP) =  -464.734142420     A.U. after   12 cycles
 SCF Done:  E(RB3LYP) =  -464.741622386     A.U. after   12 cycles
 SCF Done:  E(RB3LYP) =  -464.745057912     A.U. after   12 cycles
 SCF Done:  E(RB3LYP) =  -464.747235704     A.U. after   12 cycles
 SCF Done:  E(RB3LYP) =  -464.749122696     A.U. after   12 cycles
 SCF Done:  E(RB3LYP) =  -464.751684464     A.U. after   13 cycles
 SCF Done:  E(RB3LYP) =  -464.753299952     A.U. after   12 cycles
 SCF Done:  E(RB3LYP) =  -464.754621098     A.U. after   11 cycles
 SCF Done:  E(RB3LYP) =  -464.755021636     A.U. after   11 cycles
 SCF Done:  E(RB3LYP) =  -464.755127324     A.U. after   10 cycles
 SCF Done:  E(RB3LYP) =  -464.755166992     A.U. after   10 cycles
 SCF Done:  E(RB3LYP) =  -464.755189518     A.U. after   10 cycles
 SCF Done:  E(RB3LYP) =  -464.755199920     A.U. after    9 cycles
 SCF Done:  E(RB3LYP) =  -464.755202145     A.U. after    8 cycles
 SCF Done:  E(RB3LYP) =  -464.755202740     A.U. after    7 cycles
 Optimization completed.
    -- Stationary point found.
 Normal termination of Gaussian 16 at Mon May 31 18:34:56 2021.

 ----------------------------------------------------------------------
 #N Geom=AllCheck Guess=TCheck SCRF=Check GenChk RB3LYP/6-31G(2df,p) Fr
 eq
 ----------------------------------------------------------------------

 Structure from the checkpoint file:  "NNNCpNpdNN1CN1.chk"
 -------------------
 Title Card Required
 -------------------
 Charge =  0 Multiplicity = 1

                         Standard orientation:
 ---------------------------------------------------------------------
 Center     Atomic      Atomic             Coordinates (Angstroms)
 Number     Number       Type             X           Y           Z
 ---------------------------------------------------------------------
      1          7           0        3.135565   -0.672815    0.718460
      2          7           0        2.646432    0.188533   -0.316280
      3          7           0        1.415706   -0.248373   -0.837278
      4          6           0        0.271115    0.220462   -0.185067
      5          7           0        0.331053    1.501002    0.279918
      6          7           0       -0.750653   -0.571178   -0.172032
      7          7           0       -1.866745    0.055321    0.447258
      8          6           0       -3.026702   -0.788877    0.386806
      9          7           0       -2.957697    0.284928   -0.585333
     10          1           0        3.657098   -0.100353    1.374412
     11          1           0        3.773794   -1.373662    0.344873
     12          1           0        3.291782    0.230994   -1.098904
     13          1           0        1.339759   -1.252871   -0.978018
     14          1           0        1.260568    1.833235    0.485476
     15          1           0       -0.407231    1.727695    0.928680
     16          1           0       -3.706919   -0.724171    1.234710
     17          1           0       -2.887448   -1.782070   -0.032338
     18          1           0       -3.463512    1.089767   -0.212304
 ---------------------------------------------------------------------

 SCF Done:  E(RB3LYP) =  -464.755202740     A.U. after    1 cycles

 The electronic state is 1-A.
 Alpha  occ. eigenvalues --  -14.38948 -14.36272 -14.35776 -14.35236 -14.33167
 Alpha  occ. eigenvalues --  -14.32677 -14.29410 -10.26052 -10.21749  -1.03023
 Alpha  occ. eigenvalues --   -1.01670  -0.94054  -0.86757  -0.84983  -0.74673
 Alpha  occ. eigenvalues --   -0.67859  -0.61767  -0.58053  -0.53631  -0.52268
 Alpha  occ. eigenvalues --   -0.51935  -0.49666  -0.48777  -0.47131  -0.44383
 Alpha  occ. eigenvalues --   -0.39742  -0.36279  -0.35624  -0.31665  -0.27673
 Alpha  occ. eigenvalues --   -0.27164  -0.26068  -0.25813  -0.22265  -0.19865
 Alpha virt. eigenvalues --    0.05051   0.05831   0.10185   0.10416   0.11644
 Alpha virt. eigenvalues --    0.11922   0.13184   0.14190   0.14728   0.16532
 Alpha virt. eigenvalues --    0.17358   0.18299   0.20144   0.22055   0.25663

 Mulliken charges:
               1
     1  N   -0.446710
     2  N   -0.285393
     3  N   -0.296966
     4  C    0.509350
     5  N   -0.540975
     6  N   -0.314422
     7  N   -0.138429
     8  C   -0.142090
     9  N   -0.288360
    10  H    0.247513
    11  H    0.231753
    12  H    0.243834
    13  H    0.235552
    14  H    0.254026
    15  H    0.261620
    16  H    0.107329
    17  H    0.127473
    18  H    0.234896
 Sum of Mulliken charges =  -0.00000

 Dipole moment (field-independent basis, Debye):
    X=              3.7134    Y=              0.4504    Z=              1.5941  Tot=              4.0661
 Quadrupole moment (field-independent basis, Debye-Ang):
   XX=            -32.4338   YY=            -49.8300   ZZ=            -54.6530
   XY=             -2.9820   XZ=             -5.2604   YZ=              3.7577

  Exact polarizability: 111.874   3.038  66.767  -1.261   2.111  53.887
 Approx polarizability: 137.605   7.661 104.907   0.025   3.087  84.828

                      1                      2                      3
                      A                      A                      A
 Frequencies --     44.3025                79.9412               106.1885
 Red. masses --      4.7280                 4.3611                 4.9041
 Frc consts  --      0.0055                 0.0164                 0.0326
 IR Inten    --      2.7195                 4.3635                 5.1841

                      4                      5                      6
                      A                      A                      A
 Frequencies --    147.2449               191.2951               237.6820
 Red. masses --      3.0966                 2.8827                 1.3311
 Frc consts  --      0.0396                 0.0622                 0.0443
 IR Inten    --     11.5497                 7.0523                19.3399

                      7                      8                      9
                      A                      A                      A
 Frequencies --    344.2426               388.6987               458.0600
 Red. masses --      2.6772                 3.4935                 3.6733
 Frc consts  --      0.1869                 0.3110                 0.4541
 IR Inten    --      9.4794                 3.0775                15.9810

                     10                     11                     12
                      A                      A                      A
 Frequencies --    473.4844               515.0521               546.9089
 Red. masses --      2.8093                 1.6520                 1.7701
 Frc consts  --      0.3711                 0.2582                 0.3119
 IR Inten    --     24.7794                64.4588                74.4047

                     13                     14                     15
                      A                      A                      A
 Frequencies --    573.3543               628.1169               695.9990
 Red. masses --      1.3729                 3.1142                 5.3063
 Frc consts  --      0.2659                 0.7239                 1.5145
 IR Inten    --    105.4053                21.8897                21.2383

                     16                     17                     18
                      A                      A                      A
 Frequencies --    715.3913               770.9287               796.9813
 Red. masses --      2.6910                 5.2431                 2.0249
 Frc consts  --      0.8114                 1.8360                 0.7578
 IR Inten    --     20.0548                45.8133               106.9783

                     19                     20                     21
                      A                      A                      A
 Frequencies --    881.5012               942.3463               978.9267
 Red. masses --      3.7908                 2.9880                 1.4644
 Frc consts  --      1.7355                 1.5634                 0.8268
 IR Inten    --     23.8253                23.3670                66.3266

                     22                     23                     24
                      A                      A                      A
 Frequencies --    988.0766              1021.6235              1075.1826
 Red. masses --      1.7046                 2.4299                 1.2139
 Frc consts  --      0.9805                 1.4942                 0.8268
 IR Inten    --     13.2518                 7.1851                15.9570

                     25                     26                     27
                      A                      A                      A
 Frequencies --   1092.1023              1153.7106              1181.3490
 Red. masses --      2.0981                 1.6490                 1.3139
 Frc consts  --      1.4744                 1.2932                 1.0803
 IR Inten    --      3.8001                12.0603                 0.7281

                     28                     29                     30
                      A                      A                      A
 Frequencies --   1198.1688              1234.9819              1263.6384
 Red. masses --      2.7250                 2.8190                 1.5384
 Frc consts  --      2.3049                 2.5332                 1.4473
 IR Inten    --     65.6411                25.6847                 3.4264

                     31                     32                     33
                      A                      A                      A
 Frequencies --   1301.3781              1332.6231              1440.8255
 Red. masses --      1.1922                 1.4647                 1.9913
 Frc consts  --      1.1896                 1.5326                 2.4356
 IR Inten    --      8.8805                11.7281                64.8989

                     34                     35                     36
                      A                      A                      A
 Frequencies --   1452.0404              1508.1784              1528.3762
 Red. masses --      1.3331                 1.1454                 1.3115
 Frc consts  --      1.6560                 1.5350                 1.8049
 IR Inten    --     12.4201                 0.6838                 2.9062

                     37                     38                     39
                      A                      A                      A
 Frequencies --   1583.0469              1672.4522              1716.5727
 Red. masses --      1.4449                 1.0868                 4.9274
 Frc consts  --      2.1334                 1.7911                 8.5544
 IR Inten    --    172.6529                 7.3371               451.6443

                     40                     41                     42
                      A                      A                      A
 Frequencies --   3089.8224              3186.9952              3444.9273
 Red. masses --      1.0516                 1.1184                 1.0765
 Frc consts  --      5.9151                 6.6927                 7.5270
 IR Inten    --     45.5876                12.3408                 0.5292

                     43                     44                     45
                      A                      A                      A
 Frequencies --   3445.6836              3493.1839              3500.0829
 Red. masses --      1.0512                 1.0748                 1.0740
 Frc consts  --      7.3534                 7.7275                 7.7520
 IR Inten    --      5.9265                 1.1552                 7.0826

                     46                     47                     48
                      A                      A                      A
 Frequencies --   3557.8235              3573.6522              3695.7770
 Red. masses --      1.0923                 1.0436                 1.1016
 Frc consts  --      8.1465                 7.8526                 8.8654
 IR Inten    --      1.7343                21.3357                74.9468

 - Thermochemistry -
 -------------------
 Temperature   298.150 Kelvin.  Pressure   1.00000 Atm.
 Atom     1 has atomic number  7 and mass  14.00307

 Molecular mass:   131.09194 amu.
 Principal axes and moments of inertia in atomic units:
                           1         2         3
     Eigenvalues --   373.297292387.196012499.67374
           X            0.99999  -0.00121  -0.00353
           Y            0.00141   0.99841   0.05627
           Z            0.00345  -0.05628   0.99841
 This molecule is an asymmetric top.
 Rotational symmetry number  1.
 Rotational temperatures (Kelvin)      0.23202     0.03628     0.03465
 Rotational constants (GHZ):           4.83460     0.75601     0.72199
 Zero-point vibrational energy     390275.2 (Joules/Mol)
                                   93.27802 (Kcal/Mol)
 Warning -- explicit consideration of  13 degrees of freedom as
           vibrations may cause significant error
 Vibrational temperatures:     63.74   115.02   152.78   211.85   275.23
          (Kelvin)            341.97   495.29   559.25   659.05   681.24
                              741.05   786.88   824.93   903.72  1001.39
                             1029.29  1109.19  1146.68  1268.28  1355.83
                             1408.46  1421.62  1469.89  1546.95  1571.29
                             1659.93  1699.70  1723.90  1776.86  1818.09
                             1872.39  1917.35  2073.03  2089.16  2169.93
                             2198.99  2277.65  2406.29  2469.77  4445.57
                             4585.38  4956.48  4957.57  5025.91  5035.84
                             5118.91  5141.69  5317.40

 Zero-point correction=                           0.148648 (Hartree/Particle)
 Thermal correction to Energy=                    0.158255
 Thermal correction to Enthalpy=                  0.159199
 Thermal correction to Gibbs Free Energy=         0.113317
 Sum of electronic and zero-point Energies=           -464.606555
 Sum of electronic and thermal Energies=              -464.596947
 Sum of electronic and thermal Enthalpies=            -464.596003
 Sum of electronic and thermal Free Energies=         -464.641886

                     E (Thermal)             CV                S
                      KCal/Mol        Cal/Mol-Kelvin    Cal/Mol-Kelvin
 Total                   99.307             34.987             96.568
 Electronic               0.000              0.000              0.000
 Translational            0.889              2.981             40.525
 Rotational               0.889              2.981             29.189
 Vibrational             97.529             29.025             26.854
 Vibration     1          0.595              1.980              5.057
 Vibration     2          0.600              1.963              3.892
 Vibration     3          0.605              1.944              3.337
 Vibration     4          0.617              1.906              2.708
 Vibration     5          0.634              1.852              2.215
 Vibration     6          0.656              1.783              1.820
 Vibration     7          0.723              1.587              1.192
 Vibration     8          0.757              1.494              1.005
 Vibration     9          0.816              1.343              0.772
 Vibration    10          0.830              1.309              0.728
 Vibration    11          0.870              1.217              0.622
 Vibration    12          0.902              1.146              0.551
 Vibration    13          0.930              1.089              0.498

                           ! Non-Optimized Parameters !
 Normal termination of Gaussian 16 at Mon May 31 18:58:03 2021.
