 Gaussian 16, Revision A.03,
 Gaussian 16:  ES64L-G16RevA.03 25-Dec-2016

 -----------------------------
 # opt freq b3lyp/6-31g(2df,p)
 -----------------------------

 -------------------
 Title Card Required
 -------------------
 Symbolic Z-matrix:
 Charge =  0 Multiplicity = 1

 SCF Done:  E(RB3LYP) =  -472.029254913     A.U. after   14 cycles
 SCF Done:  E(RB3LYP) =  -472.059070875     A.U. after   12 cycles
 SCF Done:  E(RB3LYP) =  -472.060881148     A.U. after   14 cycles
 SCF Done:  E(RB3LYP) =  -472.055707669     A.U. after   14 cycles
 SCF Done:  E(RB3LYP) =  -472.063006578     A.U. after   12 cycles
 SCF Done:  E(RB3LYP) =  -472.058890564     A.U. after   14 cycles
 SCF Done:  E(RB3LYP) =  -472.063401208     A.U. after   12 cycles
 SCF Done:  E(RB3LYP) =  -472.063601738     A.U. after   10 cycles
 SCF Done:  E(RB3LYP) =  -472.063643075     A.U. after   10 cycles
 SCF Done:  E(RB3LYP) =  -472.063650125     A.U. after    9 cycles
 SCF Done:  E(RB3LYP) =  -472.063650985     A.U. after    7 cycles
 SCF Done:  E(RB3LYP) =  -472.063651172     A.U. after    7 cycles
 SCF Done:  E(RB3LYP) =  -472.063651213     A.U. after    7 cycles
 Optimization completed.
    -- Stationary point found.
 Normal termination of Gaussian 16 at Tue Jun  1 02:21:21 2021.

 ----------------------------------------------------------------------
 #N Geom=AllCheck Guess=TCheck SCRF=Check GenChk RB3LYP/6-31G(2df,p) Fr
 eq
 ----------------------------------------------------------------------

 Structure from the checkpoint file:  "NtCCCCCpNpNNN.chk"
 -------------------
 Title Card Required
 -------------------
 Charge =  0 Multiplicity = 1

                         Standard orientation:
 ---------------------------------------------------------------------
 Center     Atomic      Atomic             Coordinates (Angstroms)
 Number     Number       Type             X           Y           Z
 ---------------------------------------------------------------------
      1          7           0       -5.116222    0.444532   -0.228469
      2          6           0       -4.119853   -0.094498   -0.000498
      3          6           0       -2.846015   -0.754095    0.278708
      4          6           0       -1.633552    0.094525   -0.153580
      5          6           0       -0.307642   -0.599535    0.165747
      6          6           0        0.927354    0.206944   -0.276120
      7          7           0        1.089143    1.516482    0.347466
      8          7           0        2.120588   -0.571942    0.057829
      9          7           0        3.301515    0.016113   -0.592385
     10          7           0        4.464721   -0.205694    0.196657
     11          1           0       -2.835688   -1.722468   -0.235099
     12          1           0       -2.794549   -0.969756    1.352450
     13          1           0       -1.684606    1.064241    0.352812
     14          1           0       -1.705990    0.297131   -1.228357
     15          1           0       -0.286175   -1.581005   -0.328239
     16          1           0       -0.226617   -0.789619    1.244010
     17          1           0        0.854840    0.397383   -1.362614
     18          1           0        1.005748    1.441929    1.357480
     19          1           0        0.397468    2.177269    0.013715
     20          1           0        2.013676   -1.488568   -0.372874
     21          1           0        3.118874    1.014922   -0.509051
     22          1           0        4.801786   -1.138949   -0.022563
     23          1           0        4.201269   -0.219006    1.185104
 ---------------------------------------------------------------------

 SCF Done:  E(RB3LYP) =  -472.063651213     A.U. after    1 cycles

 The electronic state is 1-A.
 Alpha  occ. eigenvalues --  -14.35456 -14.34082 -14.32970 -14.32860 -14.32685
 Alpha  occ. eigenvalues --  -10.25160 -10.24317 -10.22309 -10.21702 -10.20432
 Alpha  occ. eigenvalues --   -0.99098  -0.91398  -0.90418  -0.84568  -0.82736
 Alpha  occ. eigenvalues --   -0.75386  -0.70551  -0.64499  -0.60705  -0.53676
 Alpha  occ. eigenvalues --   -0.52528  -0.50409  -0.49254  -0.47710  -0.46541
 Alpha  occ. eigenvalues --   -0.45063  -0.43747  -0.41373  -0.40915  -0.38825
 Alpha  occ. eigenvalues --   -0.37772  -0.36152  -0.35651  -0.32636  -0.32574
 Alpha  occ. eigenvalues --   -0.30707  -0.26553  -0.24508  -0.20790
 Alpha virt. eigenvalues --    0.02935   0.03653   0.06007   0.08048   0.08622
 Alpha virt. eigenvalues --    0.09375   0.10346   0.12366   0.13521   0.14827
 Alpha virt. eigenvalues --    0.14961   0.15629   0.16943   0.17385   0.17570

 Mulliken charges:
               1
     1  N   -0.301525
     2  C    0.257200
     3  C   -0.342181
     4  C   -0.190032
     5  C   -0.206589
     6  C    0.050716
     7  N   -0.492336
     8  N   -0.288956
     9  N   -0.264165
    10  N   -0.439348
    11  H    0.153986
    12  H    0.153691
    13  H    0.114314
    14  H    0.124245
    15  H    0.097529
    16  H    0.106930
    17  H    0.077874
    18  H    0.229999
    19  H    0.237430
    20  H    0.221732
    21  H    0.253628
    22  H    0.233654
    23  H    0.212203
 Sum of Mulliken charges =  -0.00000

 Dipole moment (field-independent basis, Debye):
    X=              1.1191    Y=             -2.1642    Z=              1.4947  Tot=              2.8584
 Quadrupole moment (field-independent basis, Debye-Ang):
   XX=           -100.1359   YY=            -56.2831   ZZ=            -59.5923
   XY=              1.0082   XZ=              0.6073   YZ=              1.2154

  Exact polarizability: 124.106  -7.506  77.973   4.821  -0.736  70.252
 Approx polarizability: 149.065 -14.784 120.837   8.553  -2.396 110.831

                      1                      2                      3
                      A                      A                      A
 Frequencies --     37.0009                65.4698                70.3624
 Red. masses --      4.9105                 4.4474                 3.2775
 Frc consts  --      0.0040                 0.0112                 0.0096
 IR Inten    --      5.0561                 3.8646                 3.6248

                      4                      5                      6
                      A                      A                      A
 Frequencies --     81.6801               119.9388               147.6063
 Red. masses --      2.5497                 2.8522                 2.7422
 Frc consts  --      0.0100                 0.0242                 0.0352
 IR Inten    --      2.8937                 1.2189                 3.5137

                      7                      8                      9
                      A                      A                      A
 Frequencies --    176.8317               262.1392               282.2284
 Red. masses --      3.6994                 3.7217                 3.5088
 Frc consts  --      0.0682                 0.1507                 0.1647
 IR Inten    --      2.5245                 4.5926                 2.5137

                     10                     11                     12
                      A                      A                      A
 Frequencies --    306.9685               362.0063               386.3902
 Red. masses --      1.2616                 3.0261                 1.2473
 Frc consts  --      0.0700                 0.2337                 0.1097
 IR Inten    --     27.5582                 2.4277                29.8796

                     13                     14                     15
                      A                      A                      A
 Frequencies --    399.0406               473.1197               509.7180
 Red. masses --      3.4314                 3.0523                 2.3579
 Frc consts  --      0.3219                 0.4026                 0.3609
 IR Inten    --      0.5093                 9.7494                 5.0123

                     16                     17                     18
                      A                      A                      A
 Frequencies --    555.4907               594.6241               744.6374
 Red. masses --      4.7509                 3.0443                 1.1228
 Frc consts  --      0.8637                 0.6342                 0.3668
 IR Inten    --      2.5355                23.1816                 4.3805

                     19                     20                     21
                      A                      A                      A
 Frequencies --    820.9951               835.9269               851.4174
 Red. masses --      1.4368                 1.8684                 2.8346
 Frc consts  --      0.5706                 0.7692                 1.2107
 IR Inten    --     94.3804                20.2268                85.9728

                     22                     23                     24
                      A                      A                      A
 Frequencies --    917.2623               930.2367               948.9317
 Red. masses --      2.7114                 2.8269                 2.0856
 Frc consts  --      1.3441                 1.4413                 1.1065
 IR Inten    --     64.2957                40.2106                44.2818

                     25                     26                     27
                      A                      A                      A
 Frequencies --    970.5352              1021.4519              1032.3520
 Red. masses --      1.8313                 2.0661                 2.9749
 Frc consts  --      1.0163                 1.2701                 1.8680
 IR Inten    --     73.8781                36.5312                 4.7041

                     28                     29                     30
                      A                      A                      A
 Frequencies --   1060.3529              1083.5697              1125.1599
 Red. masses --      2.6624                 1.7808                 1.8287
 Frc consts  --      1.7637                 1.2319                 1.3640
 IR Inten    --      3.1270                26.9232                10.6441

                     31                     32                     33
                      A                      A                      A
 Frequencies --   1151.0795              1164.9081              1224.0241
 Red. masses --      1.8796                 1.3704                 1.6558
 Frc consts  --      1.4673                 1.0957                 1.4617
 IR Inten    --     21.1247                17.5669                23.9772

                     34                     35                     36
                      A                      A                      A
 Frequencies --   1251.3505              1258.0093              1300.9998
 Red. masses --      1.5153                 1.3204                 1.2394
 Frc consts  --      1.3980                 1.2312                 1.2360
 IR Inten    --      5.6297                 4.7108                10.1054

                     37                     38                     39
                      A                      A                      A
 Frequencies --   1322.9708              1328.6054              1348.6002
 Red. masses --      1.1807                 1.1574                 1.3042
 Frc consts  --      1.2176                 1.2037                 1.3976
 IR Inten    --      1.5562                 0.5930                20.5654

                     40                     41                     42
                      A                      A                      A
 Frequencies --   1373.0016              1395.7911              1430.1125
 Red. masses --      1.4282                 1.5618                 1.2804
 Frc consts  --      1.5862                 1.7927                 1.5429
 IR Inten    --     16.5773                 9.2489                15.6590

                     43                     44                     45
                      A                      A                      A
 Frequencies --   1466.6058              1469.0124              1481.9805
 Red. masses --      1.2025                 1.1046                 1.0865
 Frc consts  --      1.5239                 1.4045                 1.4060
 IR Inten    --     14.3515                 5.5807                 0.9288

                     46                     47                     48
                      A                      A                      A
 Frequencies --   1504.7923              1572.6422              1637.8771
 Red. masses --      1.0952                 1.0877                 1.1083
 Frc consts  --      1.4612                 1.5849                 1.7518
 IR Inten    --      2.7414                 6.2213                25.2524

                     49                     50                     51
                      A                      A                      A
 Frequencies --   1686.9888              2363.4538              2934.5921
 Red. masses --      1.0614                12.6100                 1.0813
 Frc consts  --      1.7798                41.5012                 5.4867
 IR Inten    --     17.5212                10.9530                54.2367

                     52                     53                     54
                      A                      A                      A
 Frequencies --   3007.9314              3035.2241              3044.7314
 Red. masses --      1.0599                 1.0588                 1.0655
 Frc consts  --      5.6501                 5.7470                 5.8197
 IR Inten    --     20.1833                 0.6147                20.4736

                     55                     56                     57
                      A                      A                      A
 Frequencies --   3050.4291              3069.9433              3093.4528
 Red. masses --      1.0926                 1.1018                 1.1048
 Frc consts  --      5.9903                 6.1181                 6.2289
 IR Inten    --     20.0727                 2.7101                31.4393

                     58                     59                     60
                      A                      A                      A
 Frequencies --   3400.2958              3463.6039              3476.9243
 Red. masses --      1.0536                 1.0748                 1.0748
 Frc consts  --      7.1771                 7.5966                 7.6556
 IR Inten    --     17.0293                 7.1681                17.1314

                     61                     62                     63
                      A                      A                      A
 Frequencies --   3498.5903              3527.8095              3600.5352
 Red. masses --      1.0499                 1.0854                 1.0921
 Frc consts  --      7.5717                 7.9589                 8.3415
 IR Inten    --      0.4999                 1.5020                 2.4937

 - Thermochemistry -
 -------------------
 Temperature   298.150 Kelvin.  Pressure   1.00000 Atm.
 Atom     1 has atomic number  7 and mass  14.00307

 Molecular mass:   143.11710 amu.
 Principal axes and moments of inertia in atomic units:
                           1         2         3
     Eigenvalues --   332.449164720.186634901.74018
           X            1.00000   0.00186   0.00078
           Y           -0.00185   1.00000  -0.00241
           Z           -0.00078   0.00241   1.00000
 This molecule is an asymmetric top.
 Rotational symmetry number  1.
 Rotational temperatures (Kelvin)      0.26053     0.01835     0.01767
 Rotational constants (GHZ):           5.42862     0.38235     0.36818
 Zero-point vibrational energy     527016.7 (Joules/Mol)
                                  125.96002 (Kcal/Mol)
 Warning -- explicit consideration of  17 degrees of freedom as
           vibrations may cause significant error
 Vibrational temperatures:     53.24    94.20   101.24   117.52   172.57
          (Kelvin)            212.37   254.42   377.16   406.06   441.66
                              520.85   555.93   574.13   680.71   733.37
                              799.23   855.53  1071.37  1181.23  1202.71
                             1225.00  1319.74  1338.40  1365.30  1396.38
                             1469.64  1485.32  1525.61  1559.02  1618.85
                             1656.15  1676.04  1761.10  1800.41  1809.99
                             1871.85  1903.46  1911.57  1940.33  1975.44
                             2008.23  2057.61  2110.12  2113.58  2132.24
                             2165.06  2262.68  2356.54  2427.20  3400.48
                             4222.22  4327.74  4367.01  4380.69  4388.89
                             4416.96  4450.79  4892.27  4983.35  5002.52
                             5033.69  5075.73  5180.37

 Zero-point correction=                           0.200730 (Hartree/Particle)
 Thermal correction to Energy=                    0.212656
 Thermal correction to Enthalpy=                  0.213600
 Thermal correction to Gibbs Free Energy=         0.161753
 Sum of electronic and zero-point Energies=           -471.862921
 Sum of electronic and thermal Energies=              -471.850995
 Sum of electronic and thermal Enthalpies=            -471.850051
 Sum of electronic and thermal Free Energies=         -471.901898

                     E (Thermal)             CV                S
                      KCal/Mol        Cal/Mol-Kelvin    Cal/Mol-Kelvin
 Total                  133.444             42.103            109.122
 Electronic               0.000              0.000              0.000
 Translational            0.889              2.981             40.787
 Rotational               0.889              2.981             30.421
 Vibrational            131.666             36.141             37.915
 Vibration     1          0.594              1.982              5.414
 Vibration     2          0.597              1.971              4.285
 Vibration     3          0.598              1.968              4.143
 Vibration     4          0.600              1.962              3.850
 Vibration     5          0.609              1.933              3.101
 Vibration     6          0.617              1.905              2.703
 Vibration     7          0.628              1.871              2.362
 Vibration     8          0.669              1.742              1.647
 Vibration     9          0.681              1.707              1.520
 Vibration    10          0.697              1.660              1.379
 Vibration    11          0.736              1.551              1.113
 Vibration    12          0.755              1.499              1.014
 Vibration    13          0.765              1.472              0.966
 Vibration    14          0.830              1.310              0.729
 Vibration    15          0.865              1.228              0.634
 Vibration    16          0.911              1.128              0.533
 Vibration    17          0.952              1.043              0.459

 Optimization completed.
    -- Stationary point found.
 Normal termination of Gaussian 16 at Tue Jun  1 02:54:06 2021.
