 Gaussian 16, Revision A.03,
 Gaussian 16:  ES64L-G16RevA.03 25-Dec-2016

 -----------------------------
 # opt freq b3lyp/6-31g(2df,p)
 -----------------------------

 -------------------
 Title Card Required
 -------------------
 Symbolic Z-matrix:
 Charge =  0 Multiplicity = 1

 SCF Done:  E(RB3LYP) =  -454.803362311     A.U. after   15 cycles
 SCF Done:  E(RB3LYP) =  -454.827582363     A.U. after   13 cycles
 SCF Done:  E(RB3LYP) =  -454.824907957     A.U. after   15 cycles
 SCF Done:  E(RB3LYP) =  -454.826885862     A.U. after   13 cycles
 SCF Done:  E(RB3LYP) =  -454.828203988     A.U. after    9 cycles
 SCF Done:  E(RB3LYP) =  -454.828331794     A.U. after   12 cycles
 SCF Done:  E(RB3LYP) =  -454.826817112     A.U. after   15 cycles
 SCF Done:  E(RB3LYP) =  -454.828434560     A.U. after   12 cycles
 SCF Done:  E(RB3LYP) =  -454.828474973     A.U. after   12 cycles
 SCF Done:  E(RB3LYP) =  -454.771686361     A.U. after   15 cycles
 SCF Done:  E(RB3LYP) =  -454.829215961     A.U. after   14 cycles
 SCF Done:  E(RB3LYP) =  -454.830415305     A.U. after   12 cycles
 SCF Done:  E(RB3LYP) =  -454.830956657     A.U. after   13 cycles
 SCF Done:  E(RB3LYP) =  -454.831306193     A.U. after   12 cycles
 SCF Done:  E(RB3LYP) =  -454.831374635     A.U. after   12 cycles
 SCF Done:  E(RB3LYP) =  -454.831381312     A.U. after   11 cycles
 SCF Done:  E(RB3LYP) =  -454.831384517     A.U. after    9 cycles
 SCF Done:  E(RB3LYP) =  -454.831384813     A.U. after    8 cycles
 SCF Done:  E(RB3LYP) =  -454.831384870     A.U. after    8 cycles
 Optimization completed.
    -- Stationary point found.
 Normal termination of Gaussian 16 at Mon May 31 21:24:44 2021.

 ----------------------------------------------------------------------
 #N Geom=AllCheck Guess=TCheck SCRF=Check GenChk RB3LYP/6-31G(2df,p) Fr
 eq
 ----------------------------------------------------------------------

 Structure from the checkpoint file:  "NtCCCpNpCCCNdN.chk"
 -------------------
 Title Card Required
 -------------------
 Charge =  0 Multiplicity = 1

                         Standard orientation:
 ---------------------------------------------------------------------
 Center     Atomic      Atomic             Coordinates (Angstroms)
 Number     Number       Type             X           Y           Z
 ---------------------------------------------------------------------
      1          7           0       -4.703314    0.323159   -0.384423
      2          6           0       -3.720147   -0.209647   -0.091254
      3          6           0       -2.447943   -0.832182    0.261042
      4          6           0       -1.233985    0.045413   -0.172569
      5          7           0       -1.266583    1.409473    0.341557
      6          6           0        0.072522   -0.646785    0.241062
      7          6           0        1.321688    0.027621   -0.333321
      8          6           0        2.613228   -0.637460    0.154005
      9          7           0        3.762646   -0.029251   -0.527974
     10          7           0        4.551861    0.514934    0.259908
     11          1           0       -2.395512   -1.822389   -0.206326
     12          1           0       -2.421153   -0.987771    1.346844
     13          1           0       -1.261094    0.117150   -1.267179
     14          1           0       -1.308039    1.406201    1.357732
     15          1           0       -2.095985    1.896126    0.014674
     16          1           0        0.038153   -1.696717   -0.077118
     17          1           0        0.129437   -0.661747    1.339611
     18          1           0        1.323612    1.084688   -0.052293
     19          1           0        1.294825   -0.008108   -1.428921
     20          1           0        2.614041   -1.697976   -0.130389
     21          1           0        2.725659   -0.558045    1.242973
     22          1           0        5.311600    0.918620   -0.316877
 ---------------------------------------------------------------------

 SCF Done:  E(RB3LYP) =  -454.831384870     A.U. after    1 cycles

 The electronic state is 1-A.
 Alpha  occ. eigenvalues --  -14.38358 -14.37338 -14.33099 -14.32532 -10.24065
 Alpha  occ. eigenvalues --  -10.23626 -10.22412 -10.21195 -10.20121 -10.19183
 Alpha  occ. eigenvalues --   -1.02852  -0.91544  -0.89799  -0.81229  -0.78642
 Alpha  occ. eigenvalues --   -0.74311  -0.66107  -0.60190  -0.58506  -0.52618
 Alpha  occ. eigenvalues --   -0.51334  -0.49752  -0.47327  -0.46309  -0.45936
 Alpha  occ. eigenvalues --   -0.43957  -0.41911  -0.40554  -0.37769  -0.36849
 Alpha  occ. eigenvalues --   -0.36106  -0.35723  -0.34108  -0.33928  -0.32764
 Alpha  occ. eigenvalues --   -0.32581  -0.25573  -0.23034
 Alpha virt. eigenvalues --   -0.04120   0.02618   0.03536   0.06791   0.09399
 Alpha virt. eigenvalues --    0.09979   0.10847   0.11265   0.13261   0.14183
 Alpha virt. eigenvalues --    0.14927   0.15121   0.16171   0.18155   0.18760

 Mulliken charges:
               1
     1  N   -0.308152
     2  C    0.253414
     3  C   -0.354747
     4  C    0.022594
     5  N   -0.503054
     6  C   -0.185861
     7  C   -0.186985
     8  C   -0.115197
     9  N   -0.111125
    10  N   -0.279640
    11  H    0.149176
    12  H    0.144099
    13  H    0.104700
    14  H    0.226112
    15  H    0.248062
    16  H    0.098411
    17  H    0.096523
    18  H    0.133665
    19  H    0.110498
    20  H    0.111119
    21  H    0.103219
    22  H    0.243168
 Sum of Mulliken charges =  -0.00000

 Dipole moment (field-independent basis, Debye):
    X=              2.0053    Y=             -1.8345    Z=              1.0482  Tot=              2.9130
 Quadrupole moment (field-independent basis, Debye-Ang):
   XX=            -83.5038   YY=            -58.4485   ZZ=            -60.0602
   XY=              4.3859   XZ=             -6.2449   YZ=              0.2574

  Exact polarizability: 125.444   2.758  77.517   3.856  -0.316  71.182
 Approx polarizability: 153.586  -0.551 120.873  11.678   0.751 115.628

                      1                      2                      3
                      A                      A                      A
 Frequencies --     42.2433                48.6852                70.6172
 Red. masses --      5.9693                 4.8833                 3.1410
 Frc consts  --      0.0063                 0.0068                 0.0092
 IR Inten    --      1.5953                 1.4317                 4.4946

                      4                      5                      6
                      A                      A                      A
 Frequencies --    102.5136               110.2632               142.8226
 Red. masses --      4.9190                 3.2287                 2.3148
 Frc consts  --      0.0305                 0.0231                 0.0278
 IR Inten    --      3.3821                 1.1935                 1.4572

                      7                      8                      9
                      A                      A                      A
 Frequencies --    171.1368               260.3959               294.7946
 Red. masses --      4.8060                 5.5979                 1.3205
 Frc consts  --      0.0829                 0.2236                 0.0676
 IR Inten    --      4.3735                 0.2445                22.5761

                     10                     11                     12
                      A                      A                      A
 Frequencies --    307.5482               394.6787               400.3114
 Red. masses --      2.3340                 2.7761                 4.2079
 Frc consts  --      0.1301                 0.2548                 0.3973
 IR Inten    --     12.6427                 2.4043                 0.8561

                     13                     14                     15
                      A                      A                      A
 Frequencies --    438.2492               476.6183               551.2737
 Red. masses --      2.8038                 2.5854                 3.0843
 Frc consts  --      0.3173                 0.3460                 0.5522
 IR Inten    --      3.9299                 0.8011                14.3498

                     16                     17                     18
                      A                      A                      A
 Frequencies --    604.4448               759.2092               837.6839
 Red. masses --      3.3210                 1.1391                 1.8325
 Frc consts  --      0.7149                 0.3869                 0.7576
 IR Inten    --     10.1929                 1.4020                46.3637

                     19                     20                     21
                      A                      A                      A
 Frequencies --    856.2687               864.1532               901.3607
 Red. masses --      1.7811                 1.4616                 1.5103
 Frc consts  --      0.7694                 0.6431                 0.7230
 IR Inten    --     11.0693                90.8396                27.0643

                     22                     23                     24
                      A                      A                      A
 Frequencies --    933.2466               967.9351               979.3198
 Red. masses --      3.8190                 2.4371                 2.6114
 Frc consts  --      1.9597                 1.3453                 1.4756
 IR Inten    --     18.3459                 9.6101                11.5044

                     25                     26                     27
                      A                      A                      A
 Frequencies --   1011.6235              1055.6833              1064.4118
 Red. masses --      2.7747                 1.9473                 1.4972
 Frc consts  --      1.6731                 1.2786                 0.9994
 IR Inten    --     29.4430                 1.8687                 0.8124

                     28                     29                     30
                      A                      A                      A
 Frequencies --   1100.0252              1146.2467              1189.2483
 Red. masses --      2.4805                 2.3570                 1.4340
 Frc consts  --      1.7685                 1.8246                 1.1949
 IR Inten    --     30.3345                 2.3659                 4.5990

                     31                     32                     33
                      A                      A                      A
 Frequencies --   1204.9416              1254.8084              1273.5913
 Red. masses --      1.2065                 1.2693                 1.3354
 Frc consts  --      1.0321                 1.1776                 1.2762
 IR Inten    --      9.7556                 3.7065                 1.5114

                     34                     35                     36
                      A                      A                      A
 Frequencies --   1298.5058              1306.0613              1340.5648
 Red. masses --      1.3199                 1.1648                 1.1996
 Frc consts  --      1.3113                 1.1706                 1.2702
 IR Inten    --      0.7488                 0.9453                 0.6753

                     37                     38                     39
                      A                      A                      A
 Frequencies --   1351.8479              1374.3492              1396.4173
 Red. masses --      1.3250                 1.3583                 1.5479
 Frc consts  --      1.4266                 1.5116                 1.7783
 IR Inten    --      6.6420                10.0653                 0.6731

                     40                     41                     42
                      A                      A                      A
 Frequencies --   1420.3361              1460.5638              1475.3723
 Red. masses --      1.3732                 1.0952                 1.0943
 Frc consts  --      1.6321                 1.3765                 1.4034
 IR Inten    --      3.9811                 3.1176                 0.8883

                     43                     44                     45
                      A                      A                      A
 Frequencies --   1482.9565              1497.1011              1509.0071
 Red. masses --      1.0827                 1.2822                 1.0962
 Frc consts  --      1.4028                 1.6932                 1.4708
 IR Inten    --      0.9887                24.7804                 4.1317

                     46                     47                     48
                      A                      A                      A
 Frequencies --   1655.3533              1661.1791              2357.7103
 Red. masses --      9.8689                 1.0930                12.6026
 Frc consts  --     15.9331                 1.7770                41.2754
 IR Inten    --      6.6577                24.3663                12.7080

                     49                     50                     51
                      A                      A                      A
 Frequencies --   3000.3264              3008.9714              3027.2114
 Red. masses --      1.0628                 1.0556                 1.0728
 Frc consts  --      5.6366                 5.6307                 5.7923
 IR Inten    --      8.4977                24.3331                 2.0299

                     52                     53                     54
                      A                      A                      A
 Frequencies --   3036.9301              3041.2324              3049.3889
 Red. masses --      1.0684                 1.0758                 1.0868
 Frc consts  --      5.8055                 5.8625                 5.9541
 IR Inten    --     11.0993                21.5700                29.6684

                     55                     56                     57
                      A                      A                      A
 Frequencies --   3061.2944              3077.8363              3103.8386
 Red. masses --      1.1030                 1.1014                 1.1012
 Frc consts  --      6.0904                 6.1472                 6.2507
 IR Inten    --     15.4557                12.5820                26.8442

                     58                     59                     60
                      A                      A                      A
 Frequencies --   3240.7730              3483.6654              3568.0484
 Red. masses --      1.0737                 1.0494                 1.0922
 Frc consts  --      6.6439                 7.5032                 8.1924
 IR Inten    --     32.0839                 0.7627                 2.2092

 - Thermochemistry -
 -------------------
 Temperature   298.150 Kelvin.  Pressure   1.00000 Atm.
 Atom     1 has atomic number  7 and mass  14.00307

 Molecular mass:   140.10620 amu.
 Principal axes and moments of inertia in atomic units:
                           1         2         3
     Eigenvalues --   333.223504529.771924698.75241
           X            1.00000   0.00075  -0.00270
           Y           -0.00079   0.99987  -0.01594
           Z            0.00269   0.01594   0.99987
 This molecule is an asymmetric top.
 Rotational symmetry number  1.
 Rotational temperatures (Kelvin)      0.25993     0.01912     0.01843
 Rotational constants (GHZ):           5.41601     0.39842     0.38409
 Zero-point vibrational energy     491086.2 (Joules/Mol)
                                  117.37241 (Kcal/Mol)
 Warning -- explicit consideration of  16 degrees of freedom as
           vibrations may cause significant error
 Vibrational temperatures:     60.78    70.05   101.60   147.49   158.64
          (Kelvin)            205.49   246.23   374.65   424.14   442.49
                              567.85   575.96   630.54   685.75   793.16
                              869.66  1092.33  1205.24  1231.98  1243.32
                             1296.86  1342.73  1392.64  1409.02  1455.50
                             1518.89  1531.45  1582.69  1649.19  1711.06
                             1733.64  1805.39  1832.41  1868.26  1879.13
                             1928.77  1945.01  1977.38  2009.13  2043.55
                             2101.43  2122.73  2133.64  2153.99  2171.12
                             2381.68  2390.07  3392.22  4316.80  4329.24
                             4355.48  4369.47  4375.66  4387.39  4404.52
                             4428.32  4465.73  4662.75  5012.22  5133.63

 Zero-point correction=                           0.187045 (Hartree/Particle)
 Thermal correction to Energy=                    0.198624
 Thermal correction to Enthalpy=                  0.199568
 Thermal correction to Gibbs Free Energy=         0.148262
 Sum of electronic and zero-point Energies=           -454.644340
 Sum of electronic and thermal Energies=              -454.632761
 Sum of electronic and thermal Enthalpies=            -454.631817
 Sum of electronic and thermal Free Energies=         -454.683123

                     E (Thermal)             CV                S
                      KCal/Mol        Cal/Mol-Kelvin    Cal/Mol-Kelvin
 Total                  124.638             40.265            107.984
 Electronic               0.000              0.000              0.000
 Translational            0.889              2.981             40.723
 Rotational               0.889              2.981             30.340
 Vibrational            122.861             34.303             36.920
 Vibration     1          0.595              1.980              5.151
 Vibration     2          0.595              1.978              4.870
 Vibration     3          0.598              1.968              4.136
 Vibration     4          0.605              1.947              3.406
 Vibration     5          0.606              1.941              3.264
 Vibration     6          0.616              1.910              2.766
 Vibration     7          0.626              1.878              2.423
 Vibration     8          0.668              1.745              1.659
 Vibration     9          0.689              1.683              1.446
 Vibration    10          0.697              1.659              1.375
 Vibration    11          0.762              1.482              0.982
 Vibration    12          0.766              1.469              0.962
 Vibration    13          0.798              1.387              0.832
 Vibration    14          0.833              1.302              0.719
 Vibration    15          0.907              1.137              0.542
 Vibration    16          0.963              1.022              0.442

 Optimization completed.
    -- Stationary point found.
 Normal termination of Gaussian 16 at Mon May 31 22:01:19 2021.
