 Gaussian 16, Revision A.03,
 Gaussian 16:  ES64L-G16RevA.03 25-Dec-2016

 -----------------------------
 # opt freq b3lyp/6-31g(2df,p)
 -----------------------------

 -------------------
 Title Card Required
 -------------------
 Symbolic Z-matrix:
 Charge =  0 Multiplicity = 1

 SCF Done:  E(RB3LYP) =  -432.712554828     A.U. after   13 cycles
 SCF Done:  E(RB3LYP) =  -432.743236898     A.U. after   12 cycles
 SCF Done:  E(RB3LYP) =  -432.746389745     A.U. after   12 cycles
 SCF Done:  E(RB3LYP) =  -432.738721175     A.U. after   14 cycles
 SCF Done:  E(RB3LYP) =  -432.747889169     A.U. after   12 cycles
 SCF Done:  E(RB3LYP) =  -432.747895172     A.U. after   11 cycles
 SCF Done:  E(RB3LYP) =  -432.747785079     A.U. after   14 cycles
 SCF Done:  E(RB3LYP) =  -432.748564337     A.U. after   11 cycles
 SCF Done:  E(RB3LYP) =  -432.748655090     A.U. after   10 cycles
 SCF Done:  E(RB3LYP) =  -432.748793572     A.U. after   11 cycles
 SCF Done:  E(RB3LYP) =  -432.757620986     A.U. after   11 cycles
 SCF Done:  E(RB3LYP) =  -432.758908768     A.U. after   12 cycles
 SCF Done:  E(RB3LYP) =  -432.759672966     A.U. after   12 cycles
 SCF Done:  E(RB3LYP) =  -432.759715957     A.U. after   11 cycles
 SCF Done:  E(RB3LYP) =  -432.759781028     A.U. after   11 cycles
 SCF Done:  E(RB3LYP) =  -432.759797463     A.U. after    9 cycles
 SCF Done:  E(RB3LYP) =  -432.759800349     A.U. after    8 cycles
 SCF Done:  E(RB3LYP) =  -432.759800872     A.U. after    8 cycles
 SCF Done:  E(RB3LYP) =  -432.759801010     A.U. after    7 cycles
 Optimization completed.
    -- Stationary point found.
 Normal termination of Gaussian 16 at Mon May 31 19:41:46 2021.

 ----------------------------------------------------------------------
 #N Geom=AllCheck Guess=TCheck SCRF=Check GenChk RB3LYP/6-31G(2df,p) Fr
 eq
 ----------------------------------------------------------------------

 Structure from the checkpoint file:  "NtCCpCNpNCNN.chk"
 -------------------
 Title Card Required
 -------------------
 Charge =  0 Multiplicity = 1

                         Standard orientation:
 ---------------------------------------------------------------------
 Center     Atomic      Atomic             Coordinates (Angstroms)
 Number     Number       Type             X           Y           Z
 ---------------------------------------------------------------------
      1          7           0        1.383637   -2.426906    0.268808
      2          6           0        1.143562   -1.299559    0.175660
      3          6           0        0.750156    0.112353   -0.032150
      4          6           0        1.971373    0.987218   -0.371331
      5          7           0        2.947687    0.938634    0.710353
      6          7           0       -0.282859    0.253027   -1.057121
      7          6           0       -1.589247   -0.263739   -0.678335
      8          7           0       -2.180415    0.650800    0.289975
      9          7           0       -3.464680    0.263156    0.768179
     10          1           0        0.310198    0.474535    0.903857
     11          1           0        1.580374    1.987200   -0.611614
     12          1           0        2.445042    0.597821   -1.279813
     13          1           0        2.651934    1.523950    1.485189
     14          1           0        3.843260    1.295983    0.398526
     15          1           0        0.022441   -0.168973   -1.927170
     16          1           0       -1.551326   -1.259703   -0.205177
     17          1           0       -2.185089   -0.363625   -1.603713
     18          1           0       -2.270454    1.569504   -0.131841
     19          1           0       -3.323822   -0.415606    1.510830
     20          1           0       -4.001220   -0.209705    0.036493
 ---------------------------------------------------------------------

 SCF Done:  E(RB3LYP) =  -432.759801010     A.U. after    1 cycles

 The electronic state is 1-A.
 Alpha  occ. eigenvalues --  -14.34480 -14.34129 -14.34061 -14.32177 -14.31752
 Alpha  occ. eigenvalues --  -10.25149 -10.24173 -10.22493 -10.20696  -0.97404
 Alpha  occ. eigenvalues --   -0.93071  -0.89040  -0.88469  -0.78354  -0.73679
 Alpha  occ. eigenvalues --   -0.64509  -0.63915  -0.55068  -0.51801  -0.50705
 Alpha  occ. eigenvalues --   -0.49662  -0.46711  -0.45380  -0.44924  -0.42771
 Alpha  occ. eigenvalues --   -0.41420  -0.39229  -0.37196  -0.35046  -0.32183
 Alpha  occ. eigenvalues --   -0.31518  -0.26216  -0.25276  -0.24934  -0.24273
 Alpha virt. eigenvalues --    0.03639   0.04047   0.07383   0.08220   0.08500
 Alpha virt. eigenvalues --    0.11067   0.11889   0.13596   0.14507   0.15754
 Alpha virt. eigenvalues --    0.16608   0.16979   0.17996   0.19347   0.20512

 Mulliken charges:
               1
     1  N   -0.338802
     2  C    0.285144
     3  C   -0.090750
     4  C   -0.179517
     5  N   -0.500525
     6  N   -0.303183
     7  C   -0.104184
     8  N   -0.255720
     9  N   -0.464896
    10  H    0.143608
    11  H    0.102953
    12  H    0.114008
    13  H    0.232865
    14  H    0.237513
    15  H    0.231675
    16  H    0.107515
    17  H    0.082765
    18  H    0.232064
    19  H    0.247006
    20  H    0.220461
 Sum of Mulliken charges =  -0.00000

 Dipole moment (field-independent basis, Debye):
    X=             -0.7431    Y=              3.1124    Z=             -1.8485  Tot=              3.6955
 Quadrupole moment (field-independent basis, Debye-Ang):
   XX=            -51.5037   YY=            -62.2490   ZZ=            -51.4340
   XY=             14.4825   XZ=              1.2536   YZ=              1.7507

  Exact polarizability:  89.870   0.778  76.643   0.657  -1.177  65.963
 Approx polarizability: 108.691  -3.907 121.645   0.435  -3.242  99.742

                      1                      2                      3
                      A                      A                      A
 Frequencies --     42.5824                68.5677               109.8044
 Red. masses --      5.1932                 4.0856                 2.7348
 Frc consts  --      0.0055                 0.0113                 0.0194
 IR Inten    --      5.7126                 1.1929                 6.6899

                      4                      5                      6
                      A                      A                      A
 Frequencies --    136.0623               155.4161               195.3303
 Red. masses --      2.1225                 3.0098                 2.8995
 Frc consts  --      0.0232                 0.0428                 0.0652
 IR Inten    --     11.9589                 4.7809                 3.1952

                      7                      8                      9
                      A                      A                      A
 Frequencies --    207.6890               262.2783               317.7964
 Red. masses --      1.5766                 2.6331                 3.1823
 Frc consts  --      0.0401                 0.1067                 0.1894
 IR Inten    --     14.0093                25.1187                 1.1217

                     10                     11                     12
                      A                      A                      A
 Frequencies --    338.4357               366.1254               403.9198
 Red. masses --      2.2827                 1.4219                 4.4723
 Frc consts  --      0.1540                 0.1123                 0.4299
 IR Inten    --      6.4220                23.0940                12.6580

                     13                     14                     15
                      A                      A                      A
 Frequencies --    537.2052               586.2184               612.6623
 Red. masses --      4.6241                 3.1939                 4.1711
 Frc consts  --      0.7862                 0.6467                 0.9225
 IR Inten    --      2.7898                16.1983                 5.6602

                     16                     17                     18
                      A                      A                      A
 Frequencies --    731.7388               791.0609               818.5097
 Red. masses --      1.9067                 1.7264                 1.4714
 Frc consts  --      0.6015                 0.6365                 0.5808
 IR Inten    --     81.8542                29.7863                66.4761

                     19                     20                     21
                      A                      A                      A
 Frequencies --    852.3330               947.8657               980.4990
 Red. masses --      1.9753                 1.3643                 1.6349
 Frc consts  --      0.8455                 0.7222                 0.9261
 IR Inten    --    139.4861                76.2056                12.1615

                     22                     23                     24
                      A                      A                      A
 Frequencies --   1018.2251              1059.4986              1088.7244
 Red. masses --      2.4303                 2.5531                 1.7897
 Frc consts  --      1.4846                 1.6885                 1.2499
 IR Inten    --      6.2824                 3.2601                 3.0871

                     25                     26                     27
                      A                      A                      A
 Frequencies --   1108.1056              1138.6695              1155.8222
 Red. masses --      2.3687                 3.2529                 3.7804
 Frc consts  --      1.7137                 2.4849                 2.9756
 IR Inten    --      3.3107                 6.4284               121.1127

                     28                     29                     30
                      A                      A                      A
 Frequencies --   1177.6268              1201.0950              1256.5646
 Red. masses --      1.7775                 1.6295                 1.1605
 Frc consts  --      1.4524                 1.3850                 1.0796
 IR Inten    --      5.4416                 4.9208                 1.6324

                     31                     32                     33
                      A                      A                      A
 Frequencies --   1305.7358              1328.7020              1345.2314
 Red. masses --      1.1922                 1.3300                 1.2546
 Frc consts  --      1.1975                 1.3834                 1.3377
 IR Inten    --      3.0683                 9.6969                 6.4899

                     34                     35                     36
                      A                      A                      A
 Frequencies --   1358.2200              1405.1617              1417.5606
 Red. masses --      1.2699                 1.3098                 1.3926
 Frc consts  --      1.3803                 1.5237                 1.6487
 IR Inten    --      7.4782                32.1916                17.0318

                     37                     38                     39
                      A                      A                      A
 Frequencies --   1488.7260              1499.7984              1505.0744
 Red. masses --      1.1748                 1.2087                 1.0850
 Frc consts  --      1.5341                 1.6019                 1.4481
 IR Inten    --     15.2426                 7.9550                 1.4407

                     40                     41                     42
                      A                      A                      A
 Frequencies --   1527.0774              1664.0213              1685.3010
 Red. masses --      1.1030                 1.0904                 1.0666
 Frc consts  --      1.5155                 1.7790                 1.7848
 IR Inten    --      4.5296                20.7761                15.3772

                     43                     44                     45
                      A                      A                      A
 Frequencies --   2344.9989              2933.8050              2972.4260
 Red. masses --     12.6462                 1.0603                 1.1000
 Frc consts  --     40.9728                 5.3769                 5.7260
 IR Inten    --      3.4212                82.0813                38.6274

                     46                     47                     48
                      A                      A                      A
 Frequencies --   2990.1217              3053.2704              3071.8300
 Red. masses --      1.0670                 1.0866                 1.0909
 Frc consts  --      5.6206                 5.9686                 6.0652
 IR Inten    --     53.6467                 8.9129                16.8169

                     49                     50                     51
                      A                      A                      A
 Frequencies --   3389.7769              3508.2860              3514.8185
 Red. masses --      1.0559                 1.0501                 1.0767
 Frc consts  --      7.1486                 7.6151                 7.8370
 IR Inten    --     17.8176                 0.5653                 1.9620

                     52                     53                     54
                      A                      A                      A
 Frequencies --   3534.4385              3540.6970              3591.4871
 Red. masses --      1.0829                 1.0743                 1.0923
 Frc consts  --      7.9703                 7.9352                 8.3014
 IR Inten    --      0.7434                 2.2641                 2.0395

 - Thermochemistry -
 -------------------
 Temperature   298.150 Kelvin.  Pressure   1.00000 Atm.
 Atom     1 has atomic number  7 and mass  14.00307

 Molecular mass:   129.10145 amu.
 Principal axes and moments of inertia in atomic units:
                           1         2         3
     Eigenvalues --   723.200512175.112592508.23475
           X            0.99932   0.03681   0.00166
           Y           -0.03684   0.99919   0.01610
           Z           -0.00107  -0.01615   0.99987
 This molecule is an asymmetric top.
 Rotational symmetry number  1.
 Warning -- assumption of classical behavior for rotation
           may cause significant error
 Rotational temperatures (Kelvin)      0.11976     0.03982     0.03453
 Rotational constants (GHZ):           2.49549     0.82972     0.71953
 Zero-point vibrational energy     452445.6 (Joules/Mol)
                                  108.13710 (Kcal/Mol)
 Warning -- explicit consideration of  15 degrees of freedom as
           vibrations may cause significant error
 Vibrational temperatures:     61.27    98.65   157.98   195.76   223.61
          (Kelvin)            281.04   298.82   377.36   457.24   486.93
                              526.77   581.15   772.92   843.44   881.48
                             1052.81  1138.16  1177.65  1226.32  1363.77
                             1410.72  1465.00  1524.38  1566.43  1594.32
                             1638.29  1662.97  1694.34  1728.11  1807.92
                             1878.66  1911.71  1935.49  1954.18  2021.71
                             2039.55  2141.94  2157.88  2165.47  2197.12
                             2394.16  2424.77  3373.93  4221.09  4276.66
                             4302.12  4392.98  4419.68  4877.13  5047.64
                             5057.04  5085.27  5094.27  5167.35

 Zero-point correction=                           0.172327 (Hartree/Particle)
 Thermal correction to Energy=                    0.183037
 Thermal correction to Enthalpy=                  0.183981
 Thermal correction to Gibbs Free Energy=         0.135515
 Sum of electronic and zero-point Energies=           -432.587474
 Sum of electronic and thermal Energies=              -432.576764
 Sum of electronic and thermal Enthalpies=            -432.575820
 Sum of electronic and thermal Free Energies=         -432.624286

                     E (Thermal)             CV                S
                      KCal/Mol        Cal/Mol-Kelvin    Cal/Mol-Kelvin
 Total                  114.858             37.449            102.006
 Electronic               0.000              0.000              0.000
 Translational            0.889              2.981             40.479
 Rotational               0.889              2.981             29.757
 Vibrational            113.080             31.487             31.769
 Vibration     1          0.595              1.980              5.135
 Vibration     2          0.598              1.969              4.194
 Vibration     3          0.606              1.941              3.272
 Vibration     4          0.614              1.917              2.859
 Vibration     5          0.620              1.897              2.605
 Vibration     6          0.636              1.846              2.177
 Vibration     7          0.641              1.829              2.064
 Vibration     8          0.670              1.742              1.647
 Vibration     9          0.704              1.640              1.321
 Vibration    10          0.719              1.599              1.220
 Vibration    11          0.739              1.542              1.096
 Vibration    12          0.769              1.462              0.948
 Vibration    13          0.892              1.168              0.571
 Vibration    14          0.943              1.061              0.474
 Vibration    15          0.972              1.005              0.428

 Optimization completed.
    -- Stationary point found.
 Normal termination of Gaussian 16 at Mon May 31 20:04:30 2021.
