 Gaussian 16, Revision A.03,
 Gaussian 16:  ES64L-G16RevA.03 25-Dec-2016

 -----------------------------
 # opt freq b3lyp/6-31g(2df,p)
 -----------------------------

 -------------------
 Title Card Required
 -------------------
 Symbolic Z-matrix:
 Charge =  0 Multiplicity = 1

 SCF Done:  E(RB3LYP) =  -415.437952640     A.U. after   14 cycles
 SCF Done:  E(RB3LYP) =  -415.464785011     A.U. after   12 cycles
 SCF Done:  E(RB3LYP) =  -415.466125529     A.U. after   12 cycles
 SCF Done:  E(RB3LYP) =  -415.457300442     A.U. after   14 cycles
 SCF Done:  E(RB3LYP) =  -415.466827015     A.U. after   12 cycles
 SCF Done:  E(RB3LYP) =  -415.462574032     A.U. after   14 cycles
 SCF Done:  E(RB3LYP) =  -415.467142688     A.U. after   11 cycles
 SCF Done:  E(RB3LYP) =  -415.467159237     A.U. after    9 cycles
 SCF Done:  E(RB3LYP) =  -415.467163452     A.U. after    8 cycles
 SCF Done:  E(RB3LYP) =  -415.467164297     A.U. after    8 cycles
 SCF Done:  E(RB3LYP) =  -415.467164593     A.U. after    8 cycles
 SCF Done:  E(RB3LYP) =  -415.467164814     A.U. after    8 cycles
 SCF Done:  E(RB3LYP) =  -415.467164971     A.U. after    8 cycles
 SCF Done:  E(RB3LYP) =  -415.467165017     A.U. after    7 cycles
 Optimization completed.
    -- Stationary point found.
 Normal termination of Gaussian 16 at Tue Jun  1 13:26:03 2021.

 ----------------------------------------------------------------------
 #N Geom=AllCheck Guess=TCheck SCRF=Check GenChk RB3LYP/6-31G(2df,p) Fr
 eq
 ----------------------------------------------------------------------

 Structure from the checkpoint file:  "NtCCNCC1CNN1.chk"
 -------------------
 Title Card Required
 -------------------
 Charge =  0 Multiplicity = 1

                         Standard orientation:
 ---------------------------------------------------------------------
 Center     Atomic      Atomic             Coordinates (Angstroms)
 Number     Number       Type             X           Y           Z
 ---------------------------------------------------------------------
      1          7           0       -3.896261   -1.190271   -0.014688
      2          6           0       -3.107555   -0.351020    0.070141
      3          6           0       -2.108444    0.718388    0.149861
      4          7           0       -0.771276    0.202898   -0.129775
      5          6           0        0.253941    1.247961   -0.109701
      6          6           0        1.666543    0.691895   -0.034317
      7          6           0        2.066840   -0.305849    1.064636
      8          7           0        2.889223   -0.976342    0.023777
      9          7           0        2.091967   -0.323075   -1.064343
     10          1           0       -2.123047    1.129573    1.166625
     11          1           0       -2.430112    1.534199   -0.522623
     12          1           0       -0.787057   -0.248650   -1.038663
     13          1           0        0.092199    1.858073    0.788572
     14          1           0        0.174815    1.934431   -0.970725
     15          1           0        2.370698    1.529272   -0.083397
     16          1           0        1.202966   -0.891100    1.406841
     17          1           0        2.636115    0.062984    1.923527
     18          1           0        2.768367   -1.986367   -0.009504
     19          1           0        1.271539   -0.923137   -1.209179
 ---------------------------------------------------------------------

 SCF Done:  E(RB3LYP) =  -415.467165017     A.U. after    1 cycles

 The electronic state is 1-A.
 Alpha  occ. eigenvalues --  -14.35318 -14.34548 -14.34208 -14.33879 -10.27151
 Alpha  occ. eigenvalues --  -10.23403 -10.22980 -10.22505 -10.21163  -0.98899
 Alpha  occ. eigenvalues --   -0.94520  -0.90624  -0.78945  -0.75339  -0.72505
 Alpha  occ. eigenvalues --   -0.66513  -0.58067  -0.55865  -0.51203  -0.50090
 Alpha  occ. eigenvalues --   -0.49666  -0.46113  -0.44831  -0.43149  -0.41600
 Alpha  occ. eigenvalues --   -0.38057  -0.37727  -0.36277  -0.34769  -0.33954
 Alpha  occ. eigenvalues --   -0.33500  -0.27913  -0.26187  -0.21250
 Alpha virt. eigenvalues --    0.01075   0.03125   0.06034   0.06522   0.08538
 Alpha virt. eigenvalues --    0.09733   0.10889   0.12449   0.14184   0.15340
 Alpha virt. eigenvalues --    0.16283   0.16797   0.17528   0.18391   0.20121

 Mulliken charges:
               1
     1  N   -0.292932
     2  C    0.256021
     3  C   -0.260351
     4  N   -0.309047
     5  C   -0.188506
     6  C    0.079801
     7  C   -0.181229
     8  N   -0.285435
     9  N   -0.321020
    10  H    0.160677
    11  H    0.137110
    12  H    0.235239
    13  H    0.117409
    14  H    0.105248
    15  H    0.098361
    16  H    0.107509
    17  H    0.104310
    18  H    0.227300
    19  H    0.209537
 Sum of Mulliken charges =  -0.00000

 Dipole moment (field-independent basis, Debye):
    X=              0.3299    Y=              2.4953    Z=              0.8870  Tot=              2.6688
 Quadrupole moment (field-independent basis, Debye-Ang):
   XX=            -78.0086   YY=            -50.7624   ZZ=            -53.6358
   XY=            -10.0680   XZ=              4.2968   YZ=              1.2699

  Exact polarizability:  92.117   4.173  75.545   2.587   1.175  64.329
 Approx polarizability: 118.510  12.677 117.045   3.512   3.677  98.877

                      1                      2                      3
                      A                      A                      A
 Frequencies --     44.1025                55.1888                91.7124
 Red. masses --      2.6501                 4.4752                 4.0210
 Frc consts  --      0.0030                 0.0080                 0.0199
 IR Inten    --     12.1648                 7.4940                 1.9049

                      4                      5                      6
                      A                      A                      A
 Frequencies --    125.3377               163.0738               271.5073
 Red. masses --      2.9828                 3.5071                 3.6199
 Frc consts  --      0.0276                 0.0549                 0.1572
 IR Inten    --      4.2970                 1.5766                 8.7025

                      7                      8                      9
                      A                      A                      A
 Frequencies --    306.4265               314.3194               393.9009
 Red. masses --      2.8139                 3.5514                 3.6750
 Frc consts  --      0.1557                 0.2067                 0.3360
 IR Inten    --      0.1146                 0.6908                 1.3266

                     10                     11                     12
                      A                      A                      A
 Frequencies --    520.0275               622.7200               676.2369
 Red. masses --      4.5494                 2.8116                 3.7164
 Frc consts  --      0.7249                 0.6424                 1.0013
 IR Inten    --      8.1717                 4.4824                20.0952

                     13                     14                     15
                      A                      A                      A
 Frequencies --    772.7181               782.7407               863.7240
 Red. masses --      1.8413                 1.5955                 2.1048
 Frc consts  --      0.6478                 0.5759                 0.9251
 IR Inten    --     53.8578                41.9332                 9.9523

                     16                     17                     18
                      A                      A                      A
 Frequencies --    917.9061               947.3460               960.9631
 Red. masses --      3.8199                 4.1465                 1.6269
 Frc consts  --      1.8962                 2.1925                 0.8852
 IR Inten    --     11.5918                 2.2032                 8.7594

                     19                     20                     21
                      A                      A                      A
 Frequencies --    985.2383               999.0982              1022.5772
 Red. masses --      2.3468                 2.2298                 2.0446
 Frc consts  --      1.3422                 1.3114                 1.2596
 IR Inten    --      3.3268                22.4859                12.4440

                     22                     23                     24
                      A                      A                      A
 Frequencies --   1050.6107              1092.2912              1132.7694
 Red. masses --      1.4854                 2.3978                 1.7650
 Frc consts  --      0.9660                 1.6855                 1.3344
 IR Inten    --     36.1335                34.0295                 7.5181

                     25                     26                     27
                      A                      A                      A
 Frequencies --   1158.6703              1184.9831              1188.1801
 Red. masses --      2.0865                 1.5191                 1.7137
 Frc consts  --      1.6504                 1.2568                 1.4254
 IR Inten    --     17.5389                11.7793                 6.0222

                     28                     29                     30
                      A                      A                      A
 Frequencies --   1227.1134              1276.9386              1313.0526
 Red. masses --      1.0768                 1.3371                 1.2360
 Frc consts  --      0.9553                 1.2845                 1.2555
 IR Inten    --      4.1694                 8.4060                 0.2541

                     31                     32                     33
                      A                      A                      A
 Frequencies --   1326.6551              1340.1718              1361.6631
 Red. masses --      1.3927                 1.3424                 1.2648
 Frc consts  --      1.4442                 1.4206                 1.3817
 IR Inten    --     10.1593                17.1701                21.9895

                     34                     35                     36
                      A                      A                      A
 Frequencies --   1402.5225              1416.3870              1438.7852
 Red. masses --      1.5520                 1.3997                 1.2210
 Frc consts  --      1.7987                 1.6544                 1.4892
 IR Inten    --     10.8609                 2.6400                29.9359

                     37                     38                     39
                      A                      A                      A
 Frequencies --   1483.8475              1496.5431              1502.1471
 Red. masses --      1.0914                 1.0831                 1.1754
 Frc consts  --      1.4158                 1.4293                 1.5626
 IR Inten    --      4.8070                 7.1843                25.6497

                     40                     41                     42
                      A                      A                      A
 Frequencies --   1510.8932              2369.9654              2943.7688
 Red. masses --      1.1220                12.6235                 1.0719
 Frc consts  --      1.5090                41.7747                 5.4729
 IR Inten    --      5.8272                 2.4303                39.0150

                     43                     44                     45
                      A                      A                      A
 Frequencies --   2953.3084              3013.5055              3041.9637
 Red. masses --      1.0704                 1.0596                 1.0900
 Frc consts  --      5.5006                 5.6696                 5.9425
 IR Inten    --     58.6743                38.3177                18.2329

                     46                     47                     48
                      A                      A                      A
 Frequencies --   3052.0136              3053.2596              3082.6105
 Red. masses --      1.0855                 1.0854                 1.1048
 Frc consts  --      5.9571                 5.9614                 6.1852
 IR Inten    --      7.9031                23.6152                52.7836

                     49                     50                     51
                      A                      A                      A
 Frequencies --   3339.7745              3479.4973              3518.5039
 Red. masses --      1.0740                 1.0767                 1.0739
 Frc consts  --      7.0581                 7.6805                 7.8328
 IR Inten    --     22.9156                 2.7456                 2.1674

 - Thermochemistry -
 -------------------
 Temperature   298.150 Kelvin.  Pressure   1.00000 Atm.
 Atom     1 has atomic number  7 and mass  14.00307

 Molecular mass:   126.09055 amu.
 Principal axes and moments of inertia in atomic units:
                           1         2         3
     Eigenvalues --   460.027422606.659652769.11995
           X            0.99986  -0.01525   0.00696
           Y            0.01521   0.99987   0.00473
           Z           -0.00703  -0.00462   0.99996
 This molecule is an asymmetric top.
 Rotational symmetry number  1.
 Warning -- assumption of classical behavior for rotation
           may cause significant error
 Rotational temperatures (Kelvin)      0.18828     0.03323     0.03128
 Rotational constants (GHZ):           3.92312     0.69236     0.65174
 Zero-point vibrational energy     422217.5 (Joules/Mol)
                                  100.91242 (Kcal/Mol)
 Warning -- explicit consideration of  10 degrees of freedom as
           vibrations may cause significant error
 Vibrational temperatures:     63.45    79.40   131.95   180.33   234.63
          (Kelvin)            390.64   440.88   452.24   566.74   748.20
                              895.96   972.95  1111.77  1126.19  1242.71
                             1320.66  1363.02  1382.61  1417.54  1437.48
                             1471.26  1511.59  1571.56  1629.80  1667.07
                             1704.93  1709.53  1765.54  1837.23  1889.19
                             1908.76  1928.21  1959.13  2017.92  2037.86
                             2070.09  2134.93  2153.19  2161.25  2173.84
                             3409.85  4235.43  4249.15  4335.76  4376.71
                             4391.17  4392.96  4435.19  4805.19  5006.22
                             5062.34

 Zero-point correction=                           0.160814 (Hartree/Particle)
 Thermal correction to Energy=                    0.170164
 Thermal correction to Enthalpy=                  0.171108
 Thermal correction to Gibbs Free Energy=         0.124866
 Sum of electronic and zero-point Energies=           -415.306351
 Sum of electronic and thermal Energies=              -415.297001
 Sum of electronic and thermal Enthalpies=            -415.296057
 Sum of electronic and thermal Free Energies=         -415.342299

                     E (Thermal)             CV                S
                      KCal/Mol        Cal/Mol-Kelvin    Cal/Mol-Kelvin
 Total                  106.780             32.663             97.325
 Electronic               0.000              0.000              0.000
 Translational            0.889              2.981             40.409
 Rotational               0.889              2.981             29.586
 Vibrational            105.002             26.701             27.330
 Vibration     1          0.595              1.980              5.066
 Vibration     2          0.596              1.975              4.622
 Vibration     3          0.602              1.955              3.623
 Vibration     4          0.610              1.928              3.016
 Vibration     5          0.623              1.888              2.514
 Vibration     6          0.675              1.726              1.587
 Vibration     7          0.697              1.662              1.382
 Vibration     8          0.702              1.646              1.339
 Vibration     9          0.761              1.483              0.985
 Vibration    10          0.875              1.206              0.610

 Optimization completed.
    -- Stationary point found.
 Normal termination of Gaussian 16 at Tue Jun  1 13:51:18 2021.
