 Gaussian 16, Revision A.03,
 Gaussian 16:  ES64L-G16RevA.03 25-Dec-2016

 -----------------------------
 # opt freq b3lyp/6-31g(2df,p)
 -----------------------------

 -------------------
 Title Card Required
 -------------------
 Symbolic Z-matrix:
 Charge =  0 Multiplicity = 1

 SCF Done:  E(RB3LYP) =  -399.410755263     A.U. after   14 cycles
 SCF Done:  E(RB3LYP) =  -399.437753493     A.U. after   13 cycles
 SCF Done:  E(RB3LYP) =  -399.436116122     A.U. after   14 cycles
 SCF Done:  E(RB3LYP) =  -399.439071592     A.U. after   13 cycles
 SCF Done:  E(RB3LYP) =  -399.441040266     A.U. after   12 cycles
 SCF Done:  E(RB3LYP) =  -399.436679526     A.U. after   14 cycles
 SCF Done:  E(RB3LYP) =  -399.441647003     A.U. after   11 cycles
 SCF Done:  E(RB3LYP) =  -399.441767532     A.U. after   11 cycles
 SCF Done:  E(RB3LYP) =  -399.441793911     A.U. after   10 cycles
 SCF Done:  E(RB3LYP) =  -399.441801506     A.U. after    9 cycles
 SCF Done:  E(RB3LYP) =  -399.441805224     A.U. after    9 cycles
 SCF Done:  E(RB3LYP) =  -399.441805863     A.U. after    8 cycles
 SCF Done:  E(RB3LYP) =  -399.441805976     A.U. after    7 cycles
 Optimization completed.
    -- Stationary point found.
 Normal termination of Gaussian 16 at Tue Jun  1 15:16:48 2021.

 ----------------------------------------------------------------------
 #N Geom=AllCheck Guess=TCheck SCRF=Check GenChk RB3LYP/6-31G(2df,p) Fr
 eq
 ----------------------------------------------------------------------

 Structure from the checkpoint file:  "NtCCCCN1CCN1.chk"
 -------------------
 Title Card Required
 -------------------
 Charge =  0 Multiplicity = 1

                         Standard orientation:
 ---------------------------------------------------------------------
 Center     Atomic      Atomic             Coordinates (Angstroms)
 Number     Number       Type             X           Y           Z
 ---------------------------------------------------------------------
      1          7           0       -4.137170   -1.055265    0.049565
      2          6           0       -3.292186   -0.268181    0.004565
      3          6           0       -2.204466    0.705628   -0.049218
      4          6           0       -0.813601    0.045122    0.023398
      5          6           0        0.296045    1.116428   -0.029968
      6          7           0        1.671998    0.674713    0.012609
      7          6           0        2.185363   -0.244831    1.045675
      8          6           0        3.059275   -0.837385   -0.071871
      9          7           0        2.131868   -0.216376   -1.082756
     10          1           0       -2.332129    1.414567    0.777720
     11          1           0       -2.301901    1.285493   -0.974759
     12          1           0       -0.719197   -0.660422   -0.809092
     13          1           0       -0.745563   -0.539205    0.946438
     14          1           0        0.161904    1.811408    0.809726
     15          1           0        0.182101    1.706620   -0.948777
     16          1           0        1.446648   -0.974089    1.416686
     17          1           0        2.666636    0.248108    1.896286
     18          1           0        3.151718   -1.922316   -0.134883
     19          1           0        4.045550   -0.373034   -0.140750
     20          1           0        1.394786   -0.919310   -1.230017
 ---------------------------------------------------------------------

 SCF Done:  E(RB3LYP) =  -399.441805976     A.U. after    1 cycles

 The electronic state is 1-A.
 Alpha  occ. eigenvalues --  -14.35082 -14.34769 -14.32803 -10.24254 -10.22565
 Alpha  occ. eigenvalues --  -10.22173 -10.22052 -10.21966 -10.21279  -0.99968
 Alpha  occ. eigenvalues --   -0.90277  -0.83630  -0.79273  -0.73786  -0.69284
 Alpha  occ. eigenvalues --   -0.63173  -0.57781  -0.53751  -0.50774  -0.49610
 Alpha  occ. eigenvalues --   -0.47339  -0.46321  -0.43633  -0.41916  -0.39814
 Alpha  occ. eigenvalues --   -0.39156  -0.37350  -0.35980  -0.35618  -0.35035
 Alpha  occ. eigenvalues --   -0.32572  -0.32463  -0.27624  -0.20707
 Alpha virt. eigenvalues --    0.03056   0.03781   0.06779   0.07705   0.08466
 Alpha virt. eigenvalues --    0.09593   0.10605   0.11638   0.13180   0.13816
 Alpha virt. eigenvalues --    0.16603   0.17143   0.17618   0.18235   0.20227

 Mulliken charges:
               1
     1  N   -0.302505
     2  C    0.257815
     3  C   -0.334513
     4  C   -0.215801
     5  C   -0.152960
     6  N   -0.068037
     7  C   -0.168726
     8  C   -0.152150
     9  N   -0.300500
    10  H    0.154014
    11  H    0.156381
    12  H    0.123618
    13  H    0.126185
    14  H    0.112298
    15  H    0.121099
    16  H    0.087950
    17  H    0.109435
    18  H    0.112883
    19  H    0.126422
    20  H    0.207093
 Sum of Mulliken charges =  -0.00000

 Dipole moment (field-independent basis, Debye):
    X=              2.3517    Y=              1.0409    Z=              1.2173  Tot=              2.8453
 Quadrupole moment (field-independent basis, Debye-Ang):
   XX=            -74.1407   YY=            -54.7476   ZZ=            -54.9845
   XY=            -13.6407   XZ=              4.6139   YZ=              1.2648

  Exact polarizability: 103.200   1.900  74.480   1.088   1.010  66.947
 Approx polarizability: 128.978  12.175 118.362   0.101   1.550 103.873

                      1                      2                      3
                      A                      A                      A
 Frequencies --     51.0662                72.5109                83.2400
 Red. masses --      2.6559                 2.7040                 4.4824
 Frc consts  --      0.0041                 0.0084                 0.0183
 IR Inten    --     10.0438                 2.0461                 7.0308

                      4                      5                      6
                      A                      A                      A
 Frequencies --    137.5648               158.8879               270.5709
 Red. masses --      2.3762                 3.0014                 3.0425
 Frc consts  --      0.0265                 0.0446                 0.1312
 IR Inten    --      0.4921                 4.9568                 2.0682

                      7                      8                      9
                      A                      A                      A
 Frequencies --    280.5001               329.3395               398.1523
 Red. masses --      4.6996                 2.3371                 3.4453
 Frc consts  --      0.2179                 0.1494                 0.3218
 IR Inten    --      0.3042                 2.1206                 0.6709

                     10                     11                     12
                      A                      A                      A
 Frequencies --    468.8824               568.8914               686.0904
 Red. masses --      4.0523                 4.6680                 2.7372
 Frc consts  --      0.5249                 0.8901                 0.7591
 IR Inten    --      8.6542                 7.9730                 2.2396

                     13                     14                     15
                      A                      A                      A
 Frequencies --    735.2746               767.5393               834.1912
 Red. masses --      1.1398                 1.7564                 1.4809
 Frc consts  --      0.3631                 0.6096                 0.6072
 IR Inten    --      3.2743                 7.5262                 0.1465

                     16                     17                     18
                      A                      A                      A
 Frequencies --    912.3519               935.6797               939.7788
 Red. masses --      2.1149                 4.9314                 2.9310
 Frc consts  --      1.0372                 2.5437                 1.5252
 IR Inten    --      3.1368                 0.3680                 7.3987

                     19                     20                     21
                      A                      A                      A
 Frequencies --    979.0915               993.6100              1009.8710
 Red. masses --      2.5746                 1.9267                 1.9676
 Frc consts  --      1.4541                 1.1207                 1.1823
 IR Inten    --      8.4628                29.6269                 1.7517

                     22                     23                     24
                      A                      A                      A
 Frequencies --   1016.9227              1039.3545              1121.2311
 Red. masses --      2.7294                 4.6514                 1.7500
 Frc consts  --      1.6630                 2.9605                 1.2962
 IR Inten    --      6.1582                 6.5790                 0.2958

                     25                     26                     27
                      A                      A                      A
 Frequencies --   1155.7167              1197.6504              1212.6365
 Red. masses --      1.3654                 1.4501                 1.6449
 Frc consts  --      1.0745                 1.2255                 1.4251
 IR Inten    --      8.3724                 7.0072                 9.8589

                     28                     29                     30
                      A                      A                      A
 Frequencies --   1225.1513              1269.3751              1271.8992
 Red. masses --      2.1440                 1.3416                 1.2981
 Frc consts  --      1.8960                 1.2737                 1.2373
 IR Inten    --     19.0446                 9.9449                 2.3266

                     31                     32                     33
                      A                      A                      A
 Frequencies --   1296.0649              1316.3899              1324.7788
 Red. masses --      1.3995                 1.2366                 1.2589
 Frc consts  --      1.3850                 1.2626                 1.3017
 IR Inten    --      4.7985                 1.0240                 2.2491

                     34                     35                     36
                      A                      A                      A
 Frequencies --   1360.0635              1362.5420              1399.2180
 Red. masses --      1.2589                 1.3880                 1.3536
 Frc consts  --      1.3721                 1.5183                 1.5614
 IR Inten    --      1.5605                 6.1265                24.6764

                     37                     38                     39
                      A                      A                      A
 Frequencies --   1405.5459              1458.6157              1468.3709
 Red. masses --      1.1515                 1.0859                 1.0793
 Frc consts  --      1.3403                 1.3612                 1.3711
 IR Inten    --      8.3478                 2.4541                 3.4651

                     40                     41                     42
                      A                      A                      A
 Frequencies --   1497.4063              1498.3815              1515.2769
 Red. masses --      1.0928                 1.0961                 1.1267
 Frc consts  --      1.4437                 1.4499                 1.5242
 IR Inten    --      2.4443                 1.7346                 3.4591

                     43                     44                     45
                      A                      A                      A
 Frequencies --   2362.4635              2967.1357              3013.0397
 Red. masses --     12.6078                 1.0672                 1.0587
 Frc consts  --     41.4592                 5.5357                 5.6630
 IR Inten    --     13.0277                55.4390                26.9104

                     46                     47                     48
                      A                      A                      A
 Frequencies --   3034.8044              3049.1460              3052.7028
 Red. masses --      1.0581                 1.0638                 1.0978
 Frc consts  --      5.7417                 5.8273                 6.0277
 IR Inten    --      1.2115                26.6739                 8.3962

                     49                     50                     51
                      A                      A                      A
 Frequencies --   3068.3125              3069.6409              3077.8339
 Red. masses --      1.0852                 1.1003                 1.0687
 Frc consts  --      6.0193                 6.1086                 5.9649
 IR Inten    --     31.1905                 1.8765                58.2004

                     52                     53                     54
                      A                      A                      A
 Frequencies --   3099.0100              3134.8321              3307.7429
 Red. masses --      1.1050                 1.1102                 1.0739
 Frc consts  --      6.2528                 6.4280                 6.9227
 IR Inten    --     26.6574                18.7294                21.3657

 - Thermochemistry -
 -------------------
 Temperature   298.150 Kelvin.  Pressure   1.00000 Atm.
 Atom     1 has atomic number  7 and mass  14.00307

 Molecular mass:   125.09530 amu.
 Principal axes and moments of inertia in atomic units:
                           1         2         3
     Eigenvalues --   397.120772859.164892959.61480
           X            0.99977  -0.02067   0.00646
           Y            0.02063   0.99977   0.00602
           Z           -0.00658  -0.00588   0.99996
 This molecule is an asymmetric top.
 Rotational symmetry number  1.
 Rotational temperatures (Kelvin)      0.21810     0.03029     0.02927
 Rotational constants (GHZ):           4.54457     0.63121     0.60979
 Zero-point vibrational energy     450168.8 (Joules/Mol)
                                  107.59292 (Kcal/Mol)
 Warning -- explicit consideration of  11 degrees of freedom as
           vibrations may cause significant error
 Vibrational temperatures:     73.47   104.33   119.76   197.93   228.60
          (Kelvin)            389.29   403.58   473.85   572.85   674.62
                              818.51   987.13  1057.90  1104.32  1200.22
                             1312.67  1346.23  1352.13  1408.69  1429.58
                             1452.98  1463.12  1495.40  1613.20  1662.82
                             1723.15  1744.71  1762.72  1826.35  1829.98
                             1864.75  1893.99  1906.06  1956.83  1960.39
                             2013.16  2022.27  2098.62  2112.66  2154.43
                             2155.84  2180.15  3399.06  4269.05  4335.09
                             4366.41  4387.04  4392.16  4414.62  4416.53
                             4428.32  4458.78  4510.32  4759.10

 Zero-point correction=                           0.171460 (Hartree/Particle)
 Thermal correction to Energy=                    0.180906
 Thermal correction to Enthalpy=                  0.181850
 Thermal correction to Gibbs Free Energy=         0.135762
 Sum of electronic and zero-point Energies=           -399.270346
 Sum of electronic and thermal Energies=              -399.260900
 Sum of electronic and thermal Enthalpies=            -399.259956
 Sum of electronic and thermal Free Energies=         -399.306044

                     E (Thermal)             CV                S
                      KCal/Mol        Cal/Mol-Kelvin    Cal/Mol-Kelvin
 Total                  113.520             33.464             96.999
 Electronic               0.000              0.000              0.000
 Translational            0.889              2.981             40.385
 Rotational               0.889              2.981             29.598
 Vibrational            111.743             27.502             27.016
 Vibration     1          0.595              1.977              4.776
 Vibration     2          0.599              1.967              4.084
 Vibration     3          0.600              1.961              3.813
 Vibration     4          0.614              1.916              2.837
 Vibration     5          0.621              1.893              2.563
 Vibration     6          0.674              1.727              1.593
 Vibration     7          0.680              1.710              1.531
 Vibration     8          0.712              1.617              1.263
 Vibration     9          0.764              1.474              0.969
 Vibration    10          0.826              1.319              0.741
 Vibration    11          0.925              1.099              0.506

 Optimization completed.
    -- Stationary point found.
 Normal termination of Gaussian 16 at Tue Jun  1 15:42:40 2021.
