 Gaussian 16, Revision A.03,
 Gaussian 16:  ES64L-G16RevA.03 25-Dec-2016

 -----------------------------
 # opt freq b3lyp/6-31g(2df,p)
 -----------------------------

 -------------------
 Title Card Required
 -------------------
 Symbolic Z-matrix:
 Charge =  0 Multiplicity = 1

 SCF Done:  E(RB3LYP) =  -414.230990496     A.U. after   15 cycles
 SCF Done:  E(RB3LYP) =  -414.272089848     A.U. after   13 cycles
 SCF Done:  E(RB3LYP) =  -414.276806773     A.U. after   13 cycles
 SCF Done:  E(RB3LYP) =  -414.276216985     A.U. after   14 cycles
 SCF Done:  E(RB3LYP) =  -414.271876201     A.U. after   13 cycles
 SCF Done:  E(RB3LYP) =  -414.270183774     A.U. after   13 cycles
 SCF Done:  E(RB3LYP) =  -414.277178878     A.U. after   10 cycles
 SCF Done:  E(RB3LYP) =  -414.277295619     A.U. after   13 cycles
 SCF Done:  E(RB3LYP) =  -414.278271065     A.U. after   12 cycles
 SCF Done:  E(RB3LYP) =  -414.278595101     A.U. after   11 cycles
 SCF Done:  E(RB3LYP) =  -414.278954234     A.U. after   13 cycles
 SCF Done:  E(RB3LYP) =  -414.279216627     A.U. after   11 cycles
 SCF Done:  E(RB3LYP) =  -414.279365792     A.U. after   11 cycles
 SCF Done:  E(RB3LYP) =  -414.279393324     A.U. after   10 cycles
 SCF Done:  E(RB3LYP) =  -414.279398654     A.U. after    9 cycles
 SCF Done:  E(RB3LYP) =  -414.279403098     A.U. after    9 cycles
 SCF Done:  E(RB3LYP) =  -414.279404905     A.U. after    9 cycles
 SCF Done:  E(RB3LYP) =  -414.279406030     A.U. after    9 cycles
 SCF Done:  E(RB3LYP) =  -414.279406117     A.U. after    7 cycles
 Optimization completed.
    -- Stationary point found.
 Normal termination of Gaussian 16 at Tue Jun  1 06:30:22 2021.

 ----------------------------------------------------------------------
 #N Geom=AllCheck Guess=TCheck SCRF=Check GenChk RB3LYP/6-31G(2df,p) Fr
 eq
 ----------------------------------------------------------------------

 Structure from the checkpoint file:  "NtCCNCN1CdNC1.chk"
 -------------------
 Title Card Required
 -------------------
 Charge =  0 Multiplicity = 1

                         Standard orientation:
 ---------------------------------------------------------------------
 Center     Atomic      Atomic             Coordinates (Angstroms)
 Number     Number       Type             X           Y           Z
 ---------------------------------------------------------------------
      1          7           0       -3.894096   -1.127340   -0.095817
      2          6           0       -3.077668   -0.314818   -0.012909
      3          6           0       -2.044442    0.720644    0.061519
      4          7           0       -0.708669    0.133614    0.017229
      5          6           0        0.348403    1.151180    0.070260
      6          7           0        1.672356    0.599659    0.117963
      7          6           0        2.123614   -0.446021    0.926554
      8          7           0        2.844018   -1.124150    0.094021
      9          6           0        2.370154   -0.177540   -0.951185
     10          1           0       -2.160633    1.257694    1.011610
     11          1           0       -2.245448    1.456922   -0.738333
     12          1           0       -0.614038   -0.424227   -0.826281
     13          1           0        0.180013    1.740817    0.981072
     14          1           0        0.315927    1.855203   -0.779209
     15          1           0        1.944879   -0.592638    1.988105
     16          1           0        1.700898   -0.647408   -1.678368
     17          1           0        3.162776    0.380479   -1.457800
 ---------------------------------------------------------------------

 SCF Done:  E(RB3LYP) =  -414.279406117     A.U. after    1 cycles

 The electronic state is 1-A.
 Alpha  occ. eigenvalues --  -14.35820 -14.35261 -14.33857 -14.31504 -10.27339
 Alpha  occ. eigenvalues --  -10.26795 -10.25525 -10.25421 -10.22996  -1.02762
 Alpha  occ. eigenvalues --   -0.94906  -0.90730  -0.84723  -0.74807  -0.69988
 Alpha  occ. eigenvalues --   -0.67266  -0.57045  -0.55585  -0.51589  -0.51040
 Alpha  occ. eigenvalues --   -0.49232  -0.47741  -0.46815  -0.43724  -0.41234
 Alpha  occ. eigenvalues --   -0.36641  -0.36239  -0.34442  -0.33526  -0.33234
 Alpha  occ. eigenvalues --   -0.28427  -0.26452  -0.24302
 Alpha virt. eigenvalues --    0.00584   0.01366   0.03108   0.06492   0.08094
 Alpha virt. eigenvalues --    0.08652   0.11004   0.12827   0.14013   0.14673
 Alpha virt. eigenvalues --    0.15047   0.16046   0.18265   0.19701   0.20578

 Mulliken charges:
               1
     1  N   -0.291465
     2  C    0.261404
     3  C   -0.261886
     4  N   -0.300659
     5  C   -0.120547
     6  N   -0.104504
     7  C    0.049723
     8  N   -0.252878
     9  C   -0.132202
    10  H    0.160335
    11  H    0.135870
    12  H    0.235336
    13  H    0.123407
    14  H    0.104821
    15  H    0.138967
    16  H    0.122669
    17  H    0.131607
 Sum of Mulliken charges =  -0.00000

 Dipole moment (field-independent basis, Debye):
    X=              0.6807    Y=              4.3565    Z=             -0.6837  Tot=              4.4620
 Quadrupole moment (field-independent basis, Debye-Ang):
   XX=            -75.3471   YY=            -56.8373   ZZ=            -46.7613
   XY=             -4.4483   XZ=             -1.5525   YZ=              0.4779

  Exact polarizability:  91.971  -0.191  68.035  -2.780   0.214  66.114
 Approx polarizability: 120.019   1.654 113.837  -5.195   3.980 103.067

                      1                      2                      3
                      A                      A                      A
 Frequencies --     51.0206                68.7938                79.6087
 Red. masses --      3.4581                 6.5302                 2.7395
 Frc consts  --      0.0053                 0.0182                 0.0102
 IR Inten    --      4.0997                 2.7746                 1.0769

                      4                      5                      6
                      A                      A                      A
 Frequencies --    126.7161               158.4818               296.9522
 Red. masses --      2.5080                 7.4779                 4.9645
 Frc consts  --      0.0237                 0.1107                 0.2579
 IR Inten    --      1.7212                 8.2559                 0.4273

                      7                      8                      9
                      A                      A                      A
 Frequencies --    322.7977               390.1164               392.2875
 Red. masses --      2.4790                 4.1084                 3.7084
 Frc consts  --      0.1522                 0.3684                 0.3362
 IR Inten    --      2.6511                 4.9232                 3.1664

                     10                     11                     12
                      A                      A                      A
 Frequencies --    504.9267               591.8868               750.0597
 Red. masses --      2.4383                 4.8750                 3.4207
 Frc consts  --      0.3663                 1.0062                 1.1339
 IR Inten    --     16.1018                12.1394                 5.5760

                     13                     14                     15
                      A                      A                      A
 Frequencies --    781.5017               913.4706               934.6117
 Red. masses --      1.2875                 2.7752                 2.1163
 Frc consts  --      0.4633                 1.3644                 1.0892
 IR Inten    --     88.8176                41.3217                 4.0191

                     16                     17                     18
                      A                      A                      A
 Frequencies --    946.5872               958.3115               994.7560
 Red. masses --      3.5679                 2.7747                 2.1080
 Frc consts  --      1.8836                 1.5014                 1.2290
 IR Inten    --      3.6094                11.6074                11.4648

                     19                     20                     21
                      A                      A                      A
 Frequencies --   1036.1339              1061.0185              1073.6119
 Red. masses --      2.9680                 2.0249                 2.0174
 Frc consts  --      1.8773                 1.3431                 1.3700
 IR Inten    --     18.8233                10.0000                42.3377

                     22                     23                     24
                      A                      A                      A
 Frequencies --   1094.2707              1111.9846              1168.9239
 Red. masses --      1.1892                 4.1000                 1.7262
 Frc consts  --      0.8390                 2.9870                 1.3897
 IR Inten    --      5.8069                85.5808                10.0456

                     25                     26                     27
                      A                      A                      A
 Frequencies --   1224.8078              1236.0466              1265.7710
 Red. masses --      1.6449                 1.2910                 1.3949
 Frc consts  --      1.4539                 1.1621                 1.3167
 IR Inten    --     38.5010                 8.9645                21.8261

                     28                     29                     30
                      A                      A                      A
 Frequencies --   1338.6139              1349.8357              1397.7365
 Red. masses --      1.3829                 1.2870                 2.8755
 Frc consts  --      1.4600                 1.3816                 3.3099
 IR Inten    --     31.4989                44.3580                67.7349

                     31                     32                     33
                      A                      A                      A
 Frequencies --   1425.1180              1484.1898              1490.1092
 Red. masses --      1.3295                 1.1287                 1.1570
 Frc consts  --      1.5909                 1.4649                 1.5137
 IR Inten    --      7.3188                23.2231                 5.8446

                     34                     35                     36
                      A                      A                      A
 Frequencies --   1495.7322              1501.5471              1615.2116
 Red. masses --      1.1368                 1.0917                 5.5567
 Frc consts  --      1.4984                 1.4503                 8.5414
 IR Inten    --     27.8483                 9.1412                54.1946

                     37                     38                     39
                      A                      A                      A
 Frequencies --   2370.1038              2938.3199              2957.3215
 Red. masses --     12.6227                 1.0720                 1.0692
 Frc consts  --     41.7771                 5.4533                 5.5093
 IR Inten    --      3.7608                39.9860                65.3293

                     40                     41                     42
                      A                      A                      A
 Frequencies --   3034.7228              3044.9465              3052.7499
 Red. masses --      1.0919                 1.0849                 1.0543
 Frc consts  --      5.9247                 5.9264                 5.7891
 IR Inten    --     30.2469                 7.5269                30.5268

                     43                     44                     45
                      A                      A                      A
 Frequencies --   3114.5102              3184.5239              3517.4033
 Red. masses --      1.1115                 1.0995                 1.0742
 Frc consts  --      6.3523                 6.5697                 7.8302
 IR Inten    --     21.6331                14.6224                 1.8200

 - Thermochemistry -
 -------------------
 Temperature   298.150 Kelvin.  Pressure   1.00000 Atm.
 Atom     1 has atomic number  7 and mass  14.00307

 Molecular mass:   124.07490 amu.
 Principal axes and moments of inertia in atomic units:
                           1         2         3
     Eigenvalues --   401.620052572.035732727.30259
           X            0.99994  -0.00944  -0.00569
           Y            0.00946   0.99995   0.00309
           Z            0.00566  -0.00314   0.99998
 This molecule is an asymmetric top.
 Rotational symmetry number  1.
 Rotational temperatures (Kelvin)      0.21566     0.03368     0.03176
 Rotational constants (GHZ):           4.49365     0.70168     0.66173
 Zero-point vibrational energy     357971.4 (Joules/Mol)
                                   85.55723 (Kcal/Mol)
 Warning -- explicit consideration of  11 degrees of freedom as
           vibrations may cause significant error
 Vibrational temperatures:     73.41    98.98   114.54   182.32   228.02
          (Kelvin)            427.25   464.43   561.29   564.41   726.48
                              851.59  1079.17  1124.41  1314.28  1344.70
                             1361.93  1378.80  1431.23  1490.77  1526.57
                             1544.69  1574.41  1599.90  1681.82  1762.23
                             1778.40  1821.16  1925.97  1942.11  2011.03
                             2050.43  2135.42  2143.93  2152.03  2160.39
                             2323.93  3410.05  4227.59  4254.93  4366.29
                             4381.00  4392.23  4481.09  4581.82  5060.76

 Zero-point correction=                           0.136344 (Hartree/Particle)
 Thermal correction to Energy=                    0.145389
 Thermal correction to Enthalpy=                  0.146334
 Thermal correction to Gibbs Free Energy=         0.100850
 Sum of electronic and zero-point Energies=           -414.143062
 Sum of electronic and thermal Energies=              -414.134017
 Sum of electronic and thermal Enthalpies=            -414.133073
 Sum of electronic and thermal Free Energies=         -414.178556

                     E (Thermal)             CV                S
                      KCal/Mol        Cal/Mol-Kelvin    Cal/Mol-Kelvin
 Total                   91.233             30.964             95.728
 Electronic               0.000              0.000              0.000
 Translational            0.889              2.981             40.361
 Rotational               0.889              2.981             29.423
 Vibrational             89.456             25.003             25.944
 Vibration     1          0.595              1.977              4.777
 Vibration     2          0.598              1.969              4.188
 Vibration     3          0.600              1.963              3.900
 Vibration     4          0.611              1.926              2.995
 Vibration     5          0.621              1.893              2.568
 Vibration     6          0.691              1.679              1.434
 Vibration     7          0.708              1.630              1.296
 Vibration     8          0.758              1.491              1.000
 Vibration     9          0.760              1.487              0.991
 Vibration    10          0.860              1.239              0.646
 Vibration    11          0.949              1.049              0.464

 Optimization completed.
    -- Stationary point found.
 Normal termination of Gaussian 16 at Tue Jun  1 07:02:43 2021.
