 Gaussian 16, Revision A.03,
 Gaussian 16:  ES64L-G16RevA.03 25-Dec-2016

 -----------------------------
 # opt freq b3lyp/6-31g(2df,p)
 -----------------------------

 -------------------
 Title Card Required
 -------------------
 Symbolic Z-matrix:
 Charge =  0 Multiplicity = 1

 SCF Done:  E(RB3LYP) =  -428.769320944     A.U. after   27 cycles
 SCF Done:  E(RB3LYP) =  -428.848562072     A.U. after   17 cycles
 SCF Done:  E(RB3LYP) =  -428.950227171     A.U. after   16 cycles
 SCF Done:  E(RB3LYP) =  -428.978779323     A.U. after   16 cycles
 SCF Done:  E(RB3LYP) =  -428.987950623     A.U. after   15 cycles
 SCF Done:  E(RB3LYP) =  -428.993103582     A.U. after   15 cycles
 SCF Done:  E(RB3LYP) =  -428.996589213     A.U. after   14 cycles
 SCF Done:  E(RB3LYP) =  -428.997735817     A.U. after   12 cycles
 SCF Done:  E(RB3LYP) =  -428.998119612     A.U. after   12 cycles
 SCF Done:  E(RB3LYP) =  -428.997896153     A.U. after   12 cycles
 SCF Done:  E(RB3LYP) =  -428.998279674     A.U. after   12 cycles
 SCF Done:  E(RB3LYP) =  -428.998397148     A.U. after   10 cycles
 SCF Done:  E(RB3LYP) =  -428.998401184     A.U. after    8 cycles
 SCF Done:  E(RB3LYP) =  -428.998401855     A.U. after    7 cycles
 Optimization completed.
    -- Stationary point found.
 Normal termination of Gaussian 16 at Tue Jun  1 16:51:26 2021.

 ----------------------------------------------------------------------
 #N Geom=AllCheck Guess=TCheck SCRF=Check GenChk RB3LYP/6-31G(2df,p) Fr
 eq
 ----------------------------------------------------------------------

 Structure from the checkpoint file:  "NtCC1N2CN1C2dNN.chk"
 -------------------
 Title Card Required
 -------------------
 Charge =  0 Multiplicity = 1

                         Standard orientation:
 ---------------------------------------------------------------------
 Center     Atomic      Atomic             Coordinates (Angstroms)
 Number     Number       Type             X           Y           Z
 ---------------------------------------------------------------------
      1          7           0       -2.114471    1.998750    0.029199
      2          6           0       -1.720276    0.915431   -0.040919
      3          6           0       -1.258736   -0.460786   -0.155987
      4          7           0        0.015905   -0.702761   -0.988424
      5          6           0        0.037384   -1.985299   -0.137659
      6          7           0       -0.371511   -1.010535    0.980782
      7          6           0        0.643960   -0.182274    0.280026
      8          7           0        1.587349    0.541156    0.639064
      9          7           0        2.429703    1.082175   -0.325082
     10          1           0       -2.083006   -1.127280   -0.421489
     11          1           0        1.021144   -2.435836   -0.011998
     12          1           0       -0.734257   -2.711655   -0.405216
     13          1           0        2.789872    1.956899    0.034547
     14          1           0        1.963426    1.233940   -1.217390
 ---------------------------------------------------------------------

 SCF Done:  E(RB3LYP) =  -428.998401855     A.U. after    1 cycles

 The electronic state is 1-A.
 Alpha  occ. eigenvalues --  -14.38673 -14.38588 -14.37482 -14.37030 -14.35642
 Alpha  occ. eigenvalues --  -10.31411 -10.28869 -10.28347 -10.24192  -1.09318
 Alpha  occ. eigenvalues --   -1.00292  -0.92461  -0.82687  -0.80916  -0.76900
 Alpha  occ. eigenvalues --   -0.69305  -0.60215  -0.55934  -0.52042  -0.51023
 Alpha  occ. eigenvalues --   -0.45337  -0.44070  -0.43086  -0.42758  -0.40605
 Alpha  occ. eigenvalues --   -0.39061  -0.37615  -0.35382  -0.35176  -0.30580
 Alpha  occ. eigenvalues --   -0.25171  -0.24700
 Alpha virt. eigenvalues --   -0.02549  -0.00344   0.02060   0.06192   0.07999
 Alpha virt. eigenvalues --    0.08505   0.10702   0.11098   0.13407   0.14477
 Alpha virt. eigenvalues --    0.15346   0.15926   0.18197   0.19505   0.20947

 Mulliken charges:
               1
     1  N   -0.304997
     2  C    0.324852
     3  C   -0.116358
     4  N   -0.210575
     5  C   -0.138923
     6  N   -0.178202
     7  C    0.450612
     8  N   -0.330984
     9  N   -0.449415
    10  H    0.139546
    11  H    0.154220
    12  H    0.134606
    13  H    0.268323
    14  H    0.257296
 Sum of Mulliken charges =   0.00000

 Dipole moment (field-independent basis, Debye):
    X=              0.5278    Y=             -2.5382    Z=             -1.7964  Tot=              3.1540
 Quadrupole moment (field-independent basis, Debye-Ang):
   XX=            -52.2093   YY=            -47.4697   ZZ=            -56.2963
   XY=              9.8820   XZ=             -0.0621   YZ=             -0.1972

  Exact polarizability:  80.845   5.199  81.832   0.968   1.258  47.510
 Approx polarizability: 120.152   6.632 132.188   3.060   3.824  81.311

                      1                      2                      3
                      A                      A                      A
 Frequencies --     83.1770               171.3512               197.2926
 Red. masses --      7.0170                 5.6790                 4.1617
 Frc consts  --      0.0286                 0.0982                 0.0954
 IR Inten    --      4.6041                10.8968                11.0630

                      4                      5                      6
                      A                      A                      A
 Frequencies --    211.7553               317.5133               403.4938
 Red. masses --      5.5785                 1.6693                 2.3361
 Frc consts  --      0.1474                 0.0992                 0.2241
 IR Inten    --      0.5668                13.6602                31.1838

                      7                      8                      9
                      A                      A                      A
 Frequencies --    463.4482               509.7933               527.3504
 Red. masses --      4.3800                 6.4864                 9.3373
 Frc consts  --      0.5543                 0.9932                 1.5299
 IR Inten    --      0.3551                 1.7237                 6.1750

                     10                     11                     12
                      A                      A                      A
 Frequencies --    550.6490               689.5949               737.0177
 Red. masses --      5.5257                 7.3012                 6.4737
 Frc consts  --      0.9872                 2.0457                 2.0718
 IR Inten    --      9.7438                 5.5916                 0.3208

                     13                     14                     15
                      A                      A                      A
 Frequencies --    765.7829               787.2595               812.9767
 Red. masses --      5.5650                 3.3886                 2.1413
 Frc consts  --      1.9228                 1.2374                 0.8338
 IR Inten    --      2.7441               113.7563               182.5016

                     16                     17                     18
                      A                      A                      A
 Frequencies --    907.5868               931.5580               983.4069
 Red. masses --      6.7014                 6.5710                 3.5875
 Frc consts  --      3.2523                 3.3597                 2.0441
 IR Inten    --     44.4260                35.7200                35.5499

                     19                     20                     21
                      A                      A                      A
 Frequencies --   1054.6847              1072.1283              1126.1446
 Red. masses --      3.2566                 1.1580                 7.7768
 Frc consts  --      2.1343                 0.7843                 5.8109
 IR Inten    --     14.6941                 0.3087                 4.4036

                     22                     23                     24
                      A                      A                      A
 Frequencies --   1146.8411              1154.4960              1166.0210
 Red. masses --      1.9280                 2.0988                 1.4725
 Frc consts  --      1.4940                 1.6482                 1.1796
 IR Inten    --     22.6355                13.0587                 2.6122

                     25                     26                     27
                      A                      A                      A
 Frequencies --   1263.1378              1348.9194              1390.9864
 Red. masses --      1.4258                 1.2693                 1.2547
 Frc consts  --      1.3404                 1.3607                 1.4303
 IR Inten    --      0.3129                 0.6648                10.0859

                     28                     29                     30
                      A                      A                      A
 Frequencies --   1535.1155              1663.0337              1863.1265
 Red. masses --      1.0905                 1.0918                10.3544
 Frc consts  --      1.5141                 1.7791                21.1767
 IR Inten    --      0.2706                24.6366                89.0128

                     31                     32                     33
                      A                      A                      A
 Frequencies --   2366.7992              3068.9986              3093.0009
 Red. masses --     12.6603                 1.0566                 1.0841
 Frc consts  --     41.7846                 5.8635                 6.1106
 IR Inten    --      0.5807                29.4141                11.3746

                     34                     35                     36
                      A                      A                      A
 Frequencies --   3167.0575              3465.8223              3604.8218
 Red. masses --      1.1128                 1.0509                 1.0929
 Frc consts  --      6.5765                 7.4373                 8.3675
 IR Inten    --      9.6397                 1.4970                16.4951

 - Thermochemistry -
 -------------------
 Temperature   298.150 Kelvin.  Pressure   1.00000 Atm.
 Atom     1 has atomic number  7 and mass  14.00307

 Molecular mass:   123.05450 amu.
 Principal axes and moments of inertia in atomic units:
                           1         2         3
     Eigenvalues --   765.916331065.595061562.66512
           X            0.99335   0.11501  -0.00521
           Y           -0.11501   0.99336   0.00120
           Z            0.00532  -0.00059   0.99999
 This molecule is an asymmetric top.
 Rotational symmetry number  1.
 Warning -- assumption of classical behavior for rotation
           may cause significant error
 Rotational temperatures (Kelvin)      0.11309     0.08128     0.05543
 Rotational constants (GHZ):           2.35632     1.69365     1.15491
 Zero-point vibrational energy     266780.1 (Joules/Mol)
                                   63.76196 (Kcal/Mol)
 Warning -- explicit consideration of  10 degrees of freedom as
           vibrations may cause significant error
 Vibrational temperatures:    119.67   246.54   283.86   304.67   456.83
          (Kelvin)            580.54   666.80   733.48   758.74   792.26
                              992.17  1060.40  1101.79  1132.69  1169.69
                             1305.82  1340.30  1414.90  1517.46  1542.55
                             1620.27  1650.05  1661.06  1677.64  1817.37
                             1940.79  2001.32  2208.69  2392.73  2680.62
                             3405.30  4415.60  4450.14  4556.69  4986.55
                             5186.53

 Zero-point correction=                           0.101611 (Hartree/Particle)
 Thermal correction to Energy=                    0.109273
 Thermal correction to Enthalpy=                  0.110217
 Thermal correction to Gibbs Free Energy=         0.069247
 Sum of electronic and zero-point Energies=           -428.896791
 Sum of electronic and thermal Energies=              -428.889129
 Sum of electronic and thermal Enthalpies=            -428.888185
 Sum of electronic and thermal Free Energies=         -428.929155

                     E (Thermal)             CV                S
                      KCal/Mol        Cal/Mol-Kelvin    Cal/Mol-Kelvin
 Total                   68.570             28.545             86.228
 Electronic               0.000              0.000              0.000
 Translational            0.889              2.981             40.336
 Rotational               0.889              2.981             28.635
 Vibrational             66.792             22.583             17.256
 Vibration     1          0.600              1.961              3.814
 Vibration     2          0.626              1.878              2.421
 Vibration     3          0.637              1.844              2.158
 Vibration     4          0.643              1.823              2.028
 Vibration     5          0.704              1.640              1.323
 Vibration     6          0.769              1.463              0.950
 Vibration     7          0.821              1.331              0.756
 Vibration     8          0.865              1.228              0.634
 Vibration     9          0.882              1.189              0.593
 Vibration    10          0.906              1.138              0.543

 Optimization completed.
    -- Stationary point found.
 Normal termination of Gaussian 16 at Tue Jun  1 17:11:12 2021.
