 Gaussian 16, Revision A.03,
 Gaussian 16:  ES64L-G16RevA.03 25-Dec-2016

 -----------------------------
 # opt freq b3lyp/6-31g(2df,p)
 -----------------------------

 -------------------
 Title Card Required
 -------------------
 Symbolic Z-matrix:
 Charge =  0 Multiplicity = 1

 SCF Done:  E(RB3LYP) =  -415.440342977     A.U. after   14 cycles
 SCF Done:  E(RB3LYP) =  -415.467893679     A.U. after   12 cycles
 SCF Done:  E(RB3LYP) =  -415.469775606     A.U. after   12 cycles
 SCF Done:  E(RB3LYP) =  -415.464827558     A.U. after   14 cycles
 SCF Done:  E(RB3LYP) =  -415.472637414     A.U. after   12 cycles
 SCF Done:  E(RB3LYP) =  -415.472620752     A.U. after   12 cycles
 SCF Done:  E(RB3LYP) =  -415.474156734     A.U. after   13 cycles
 SCF Done:  E(RB3LYP) =  -415.475043921     A.U. after   12 cycles
 SCF Done:  E(RB3LYP) =  -415.475202349     A.U. after   10 cycles
 SCF Done:  E(RB3LYP) =  -415.475227577     A.U. after    9 cycles
 SCF Done:  E(RB3LYP) =  -415.475231566     A.U. after    8 cycles
 SCF Done:  E(RB3LYP) =  -415.475232520     A.U. after    7 cycles
 SCF Done:  E(RB3LYP) =  -415.475232646     A.U. after    7 cycles
 SCF Done:  E(RB3LYP) =  -415.475232676     A.U. after    7 cycles
 Optimization completed.
    -- Stationary point found.
 Normal termination of Gaussian 16 at Tue Jun  1 18:54:53 2021.

 ----------------------------------------------------------------------
 #N Geom=AllCheck Guess=TCheck SCRF=Check GenChk RB3LYP/6-31G(2df,p) Fr
 eq
 ----------------------------------------------------------------------

 Structure from the checkpoint file:  "NtCCNCC1CN1N.chk"
 -------------------
 Title Card Required
 -------------------
 Charge =  0 Multiplicity = 1

                         Standard orientation:
 ---------------------------------------------------------------------
 Center     Atomic      Atomic             Coordinates (Angstroms)
 Number     Number       Type             X           Y           Z
 ---------------------------------------------------------------------
      1          7           0       -3.893495   -1.229396    0.154259
      2          6           0       -3.123527   -0.391194   -0.041449
      3          6           0       -2.147659    0.668594   -0.314615
      4          7           0       -0.813457    0.275008    0.106439
      5          6           0        0.188976    1.296060   -0.163794
      6          6           0        1.576919    0.773667    0.144214
      7          6           0        1.868276   -0.200646    1.237698
      8          7           0        1.840054   -0.618698   -0.175006
      9          7           0        3.085646   -0.854713   -0.838758
     10          1           0       -2.450321    1.563084    0.245249
     11          1           0       -2.225429    0.934079   -1.385888
     12          1           0       -0.528429   -0.583393   -0.357139
     13          1           0       -0.017744    2.173064    0.465291
     14          1           0        0.170666    1.646814   -1.213828
     15          1           0        2.377080    1.473569   -0.093200
     16          1           0        1.066643   -0.589739    1.856773
     17          1           0        2.844406   -0.130762    1.714926
     18          1           0        3.194520   -1.865574   -0.867637
     19          1           0        3.859461   -0.505438   -0.265418
 ---------------------------------------------------------------------

 SCF Done:  E(RB3LYP) =  -415.475232676     A.U. after    1 cycles

 The electronic state is 1-A.
 Alpha  occ. eigenvalues --  -14.36535 -14.34897 -14.33358 -14.32722 -10.25838
 Alpha  occ. eigenvalues --  -10.22567 -10.22379 -10.21872 -10.21545  -1.00653
 Alpha  occ. eigenvalues --   -0.93188  -0.89515  -0.85168  -0.75647  -0.68528
 Alpha  occ. eigenvalues --   -0.63651  -0.58878  -0.54443  -0.52272  -0.49751
 Alpha  occ. eigenvalues --   -0.49415  -0.47030  -0.44501  -0.43406  -0.41486
 Alpha  occ. eigenvalues --   -0.37849  -0.37708  -0.35407  -0.34092  -0.32875
 Alpha  occ. eigenvalues --   -0.32305  -0.26317  -0.24810  -0.23953
 Alpha virt. eigenvalues --    0.02622   0.04273   0.07271   0.08778   0.09549
 Alpha virt. eigenvalues --    0.10674   0.12629   0.13086   0.13865   0.14414
 Alpha virt. eigenvalues --    0.15736   0.17146   0.17658   0.17852   0.20239

 Mulliken charges:
               1
     1  N   -0.299377
     2  C    0.257896
     3  C   -0.256077
     4  N   -0.303978
     5  C   -0.161260
     6  C    0.024968
     7  C   -0.242002
     8  N   -0.106820
     9  N   -0.447504
    10  H    0.153073
    11  H    0.131108
    12  H    0.246772
    13  H    0.109385
    14  H    0.091610
    15  H    0.091393
    16  H    0.137821
    17  H    0.106147
    18  H    0.247697
    19  H    0.219148
 Sum of Mulliken charges =  -0.00000

 Dipole moment (field-independent basis, Debye):
    X=              4.0798    Y=              2.6634    Z=              0.1657  Tot=              4.8750
 Quadrupole moment (field-independent basis, Debye-Ang):
   XX=            -61.4343   YY=            -52.4185   ZZ=            -55.3991
   XY=            -11.3001   XZ=              6.5717   YZ=              0.2616

  Exact polarizability:  97.274   2.594  74.502  -1.094  -2.277  64.497
 Approx polarizability: 120.285  11.048 117.286  -3.635  -4.069  99.252

                      1                      2                      3
                      A                      A                      A
 Frequencies --     52.1474                89.5534                94.1279
 Red. masses --      4.9777                 4.7521                 2.7842
 Frc consts  --      0.0080                 0.0225                 0.0145
 IR Inten    --      1.3369                 1.8751                14.1036

                      4                      5                      6
                      A                      A                      A
 Frequencies --    155.6619               202.5525               232.8753
 Red. masses --      2.7288                 1.8100                 1.7561
 Frc consts  --      0.0390                 0.0438                 0.0561
 IR Inten    --      1.2224                20.4702                19.9877

                      7                      8                      9
                      A                      A                      A
 Frequencies --    263.9252               317.3002               371.3366
 Red. masses --      2.7933                 4.6694                 3.3362
 Frc consts  --      0.1146                 0.2770                 0.2710
 IR Inten    --      3.9110                 1.0851                 1.9626

                     10                     11                     12
                      A                      A                      A
 Frequencies --    394.4089               474.4270               523.2649
 Red. masses --      3.6936                 2.3481                 4.7662
 Frc consts  --      0.3385                 0.3114                 0.7689
 IR Inten    --      1.5699                 2.4557                 2.7063

                     13                     14                     15
                      A                      A                      A
 Frequencies --    616.2791               755.7542               786.0101
 Red. masses --      3.5968                 4.2464                 1.9109
 Frc consts  --      0.8049                 1.4290                 0.6956
 IR Inten    --      0.0050                24.3526                21.6811

                     16                     17                     18
                      A                      A                      A
 Frequencies --    832.9386               906.5417               948.0845
 Red. masses --      1.3602                 3.5439                 2.8215
 Frc consts  --      0.5560                 1.7160                 1.4943
 IR Inten    --     60.6016                 4.5121                 2.4541

                     19                     20                     21
                      A                      A                      A
 Frequencies --    964.5830               987.2792              1000.8445
 Red. masses --      1.9015                 1.7074                 1.5516
 Frc consts  --      1.0424                 0.9805                 0.9157
 IR Inten    --      7.7858                 5.8475                51.5311

                     22                     23                     24
                      A                      A                      A
 Frequencies --   1057.9930              1088.9567              1096.2469
 Red. masses --      1.6415                 2.0237                 1.3228
 Frc consts  --      1.0826                 1.4139                 0.9366
 IR Inten    --      3.0320                14.6440                10.3612

                     25                     26                     27
                      A                      A                      A
 Frequencies --   1114.1991              1143.9553              1160.5481
 Red. masses --      1.4212                 1.9733                 3.1117
 Frc consts  --      1.0395                 1.5215                 2.4693
 IR Inten    --     12.4914                 8.3666                15.2454

                     28                     29                     30
                      A                      A                      A
 Frequencies --   1195.8286              1232.9841              1263.1509
 Red. masses --      1.7002                 1.2653                 1.6154
 Frc consts  --      1.4325                 1.1333                 1.5186
 IR Inten    --     34.5919                 7.8067                 1.5824

                     31                     32                     33
                      A                      A                      A
 Frequencies --   1290.5285              1340.6254              1361.0444
 Red. masses --      1.2309                 1.3818                 1.3437
 Frc consts  --      1.2078                 1.4632                 1.4665
 IR Inten    --      8.5355                20.1939                 6.4153

                     34                     35                     36
                      A                      A                      A
 Frequencies --   1414.0646              1427.3174              1487.8085
 Red. masses --      1.5522                 1.5813                 1.2255
 Frc consts  --      1.8287                 1.8981                 1.5983
 IR Inten    --      9.7044                12.0452                 2.0102

                     37                     38                     39
                      A                      A                      A
 Frequencies --   1490.4512              1494.8426              1513.1901
 Red. masses --      1.1623                 1.2464                 1.0870
 Frc consts  --      1.5213                 1.6409                 1.4665
 IR Inten    --     20.2976                54.5290                13.4507

                     40                     41                     42
                      A                      A                      A
 Frequencies --   1662.0746              2369.3286              2915.8203
 Red. masses --      1.0751                12.6241                 1.0725
 Frc consts  --      1.7499                41.7543                 5.3722
 IR Inten    --     19.2220                 3.3540                64.9749

                     43                     44                     45
                      A                      A                      A
 Frequencies --   2928.5321              3022.7681              3039.8467
 Red. masses --      1.0724                 1.0861                 1.0843
 Frc consts  --      5.4189                 5.8471                 5.9032
 IR Inten    --     55.3111                33.0652                10.5036

                     46                     47                     48
                      A                      A                      A
 Frequencies --   3098.8749              3120.4458              3204.2600
 Red. masses --      1.0543                 1.0876                 1.1155
 Frc consts  --      5.9650                 6.2396                 6.7477
 IR Inten    --     16.8979                18.9016                 9.1426

                     49                     50                     51
                      A                      A                      A
 Frequencies --   3378.8108              3513.6490              3525.5254
 Red. masses --      1.0559                 1.0738                 1.0847
 Frc consts  --      7.1020                 7.8111                 7.9434
 IR Inten    --     16.3871                18.9588                 0.8275

 - Thermochemistry -
 -------------------
 Temperature   298.150 Kelvin.  Pressure   1.00000 Atm.
 Atom     1 has atomic number  7 and mass  14.00307

 Molecular mass:   126.09055 amu.
 Principal axes and moments of inertia in atomic units:
                           1         2         3
     Eigenvalues --   471.458492643.098932814.92656
           X            0.99982  -0.01686   0.00852
           Y            0.01711   0.99939  -0.03047
           Z           -0.00800   0.03061   0.99950
 This molecule is an asymmetric top.
 Rotational symmetry number  1.
 Warning -- assumption of classical behavior for rotation
           may cause significant error
 Rotational temperatures (Kelvin)      0.18371     0.03277     0.03077
 Rotational constants (GHZ):           3.82800     0.68281     0.64113
 Zero-point vibrational energy     418235.8 (Joules/Mol)
                                   99.96076 (Kcal/Mol)
 Warning -- explicit consideration of  13 degrees of freedom as
           vibrations may cause significant error
 Vibrational temperatures:     75.03   128.85   135.43   223.96   291.43
          (Kelvin)            335.06   379.73   456.52   534.27   567.47
                              682.59   752.86   886.69  1087.36  1130.89
                             1198.41  1304.31  1364.08  1387.82  1420.47
                             1439.99  1522.22  1566.77  1577.25  1603.08
                             1645.90  1669.77  1720.53  1773.99  1817.39
                             1856.78  1928.86  1958.24  2034.52  2053.59
                             2140.62  2144.43  2150.75  2177.14  2391.35
                             3408.94  4195.22  4213.50  4349.09  4373.66
                             4458.59  4489.63  4610.22  4861.36  5055.36
                             5072.44

 Zero-point correction=                           0.159298 (Hartree/Particle)
 Thermal correction to Energy=                    0.168999
 Thermal correction to Enthalpy=                  0.169944
 Thermal correction to Gibbs Free Energy=         0.123765
 Sum of electronic and zero-point Energies=           -415.315935
 Sum of electronic and thermal Energies=              -415.306233
 Sum of electronic and thermal Enthalpies=            -415.305289
 Sum of electronic and thermal Free Energies=         -415.351468

                     E (Thermal)             CV                S
                      KCal/Mol        Cal/Mol-Kelvin    Cal/Mol-Kelvin
 Total                  106.049             34.524             97.192
 Electronic               0.000              0.000              0.000
 Translational            0.889              2.981             40.409
 Rotational               0.889              2.981             29.641
 Vibrational            104.271             28.562             27.142
 Vibration     1          0.596              1.977              4.734
 Vibration     2          0.602              1.957              3.670
 Vibration     3          0.603              1.953              3.572
 Vibration     4          0.620              1.896              2.602
 Vibration     5          0.639              1.836              2.110
 Vibration     6          0.654              1.791              1.857
 Vibration     7          0.670              1.739              1.636
 Vibration     8          0.704              1.641              1.324
 Vibration     9          0.743              1.531              1.074
 Vibration    10          0.761              1.482              0.983
 Vibration    11          0.831              1.307              0.725
 Vibration    12          0.878              1.198              0.602
 Vibration    13          0.976              0.997              0.422

 Optimization completed.
    -- Stationary point found.
 Normal termination of Gaussian 16 at Tue Jun  1 19:18:43 2021.
