 Gaussian 16, Revision A.03,
 Gaussian 16:  ES64L-G16RevA.03 25-Dec-2016

 -----------------------------
 # opt freq b3lyp/6-31g(2df,p)
 -----------------------------

 -------------------
 Title Card Required
 -------------------
 Symbolic Z-matrix:
 Charge =  0 Multiplicity = 1

 SCF Done:  E(RB3LYP) =  -415.505144972     A.U. after   15 cycles
 SCF Done:  E(RB3LYP) =  -415.532318730     A.U. after   13 cycles
 SCF Done:  E(RB3LYP) =  -415.524614121     A.U. after   15 cycles
 SCF Done:  E(RB3LYP) =  -415.533696923     A.U. after   13 cycles
 SCF Done:  E(RB3LYP) =  -415.534318977     A.U. after   12 cycles
 SCF Done:  E(RB3LYP) =  -415.534204553     A.U. after   12 cycles
 SCF Done:  E(RB3LYP) =  -415.532799277     A.U. after   13 cycles
 SCF Done:  E(RB3LYP) =  -415.532510774     A.U. after   12 cycles
 SCF Done:  E(RB3LYP) =  -415.534358621     A.U. after   10 cycles
 SCF Done:  E(RB3LYP) =  -415.534609013     A.U. after   12 cycles
 SCF Done:  E(RB3LYP) =  -415.533694903     A.U. after   13 cycles
 SCF Done:  E(RB3LYP) =  -415.538126332     A.U. after   12 cycles
 SCF Done:  E(RB3LYP) =  -415.537109244     A.U. after   12 cycles
 SCF Done:  E(RB3LYP) =  -415.537688704     A.U. after   12 cycles
 SCF Done:  E(RB3LYP) =  -415.538425536     A.U. after    8 cycles
 SCF Done:  E(RB3LYP) =  -415.538432135     A.U. after   11 cycles
 SCF Done:  E(RB3LYP) =  -415.538485592     A.U. after   10 cycles
 SCF Done:  E(RB3LYP) =  -415.538487399     A.U. after    8 cycles
 SCF Done:  E(RB3LYP) =  -415.538487731     A.U. after    7 cycles
 Optimization completed.
    -- Stationary point found.
 Normal termination of Gaussian 16 at Tue Jun  1 07:45:08 2021.

 ----------------------------------------------------------------------
 #N Geom=AllCheck Guess=TCheck SCRF=Check GenChk RB3LYP/6-31G(2df,p) Fr
 eq
 ----------------------------------------------------------------------

 Structure from the checkpoint file:  "NtCCCpNppCdNpCN.chk"
 -------------------
 Title Card Required
 -------------------
 Charge =  0 Multiplicity = 1

                         Standard orientation:
 ---------------------------------------------------------------------
 Center     Atomic      Atomic             Coordinates (Angstroms)
 Number     Number       Type             X           Y           Z
 ---------------------------------------------------------------------
      1          7           0        3.262811    0.048411    0.213204
      2          6           0        2.276141   -0.424020   -0.159873
      3          6           0        1.004877   -1.002727   -0.582014
      4          6           0       -0.223670   -0.218606   -0.008502
      5          7           0       -0.154095    0.002849    1.431402
      6          6           0       -0.316260    1.125493   -0.730720
      7          7           0       -0.450462    2.272188   -0.219190
      8          6           0       -1.485824   -1.056812   -0.315268
      9          7           0       -2.689387   -0.328358    0.051421
     10          1           0        0.965289   -2.042569   -0.236551
     11          1           0        0.967471   -1.027425   -1.677204
     12          1           0        0.710499    0.476599    1.680601
     13          1           0       -0.159011   -0.883153    1.928455
     14          1           0       -0.252901    1.049721   -1.822477
     15          1           0       -0.524304    2.191622    0.800419
     16          1           0       -1.359793   -2.033153    0.192886
     17          1           0       -1.516542   -1.269321   -1.391127
     18          1           0       -2.634937   -0.054222    1.027095
     19          1           0       -3.509435   -0.913698   -0.061687
 ---------------------------------------------------------------------

 SCF Done:  E(RB3LYP) =  -415.538487731     A.U. after    1 cycles

 The electronic state is 1-A.
 Alpha  occ. eigenvalues --  -14.34056 -14.33662 -14.31979 -14.31532 -10.25474
 Alpha  occ. eigenvalues --  -10.24507 -10.23232 -10.23021 -10.22952  -0.94488
 Alpha  occ. eigenvalues --   -0.90890  -0.89174  -0.87995  -0.80012  -0.71647
 Alpha  occ. eigenvalues --   -0.64485  -0.57931  -0.54053  -0.52569  -0.50341
 Alpha  occ. eigenvalues --   -0.47839  -0.46558  -0.45590  -0.43323  -0.41703
 Alpha  occ. eigenvalues --   -0.40260  -0.38025  -0.36320  -0.33802  -0.33360
 Alpha  occ. eigenvalues --   -0.31390  -0.27592  -0.26283  -0.24659
 Alpha virt. eigenvalues --   -0.00624   0.01769   0.03404   0.05955   0.08353
 Alpha virt. eigenvalues --    0.09957   0.10897   0.12794   0.14018   0.15842
 Alpha virt. eigenvalues --    0.16372   0.16802   0.17614   0.18433   0.20256

 Mulliken charges:
               1
     1  N   -0.303691
     2  C    0.265442
     3  C   -0.386969
     4  C    0.159924
     5  N   -0.541449
     6  C    0.100416
     7  N   -0.406780
     8  C   -0.165704
     9  N   -0.504273
    10  H    0.145685
    11  H    0.154669
    12  H    0.254496
    13  H    0.235207
    14  H    0.103771
    15  H    0.229978
    16  H    0.076891
    17  H    0.109926
    18  H    0.240475
    19  H    0.231987
 Sum of Mulliken charges =  -0.00000

 Dipole moment (field-independent basis, Debye):
    X=             -2.7013    Y=             -4.8603    Z=              0.4930  Tot=              5.5823
 Quadrupole moment (field-independent basis, Debye-Ang):
   XX=            -66.0567   YY=            -57.8340   ZZ=            -49.1653
   XY=              2.7200   XZ=             -3.0966   YZ=              2.4228

  Exact polarizability:  85.839   3.053  75.887   1.856   4.768  67.871
 Approx polarizability: 119.557   8.255 119.714   6.570  12.875 106.698

                      1                      2                      3
                      A                      A                      A
 Frequencies --     68.5956                97.3564               121.2122
 Red. masses --      5.4591                 3.9329                 2.6749
 Frc consts  --      0.0151                 0.0220                 0.0232
 IR Inten    --      6.0250                 2.1417                 2.7719

                      4                      5                      6
                      A                      A                      A
 Frequencies --    144.2077               221.8248               249.9394
 Red. masses --      4.3440                 2.8652                 1.2599
 Frc consts  --      0.0532                 0.0831                 0.0464
 IR Inten    --      1.5278                 7.2957                32.9564

                      7                      8                      9
                      A                      A                      A
 Frequencies --    308.5075               316.3667               322.9800
 Red. masses --      2.2388                 2.2895                 1.2312
 Frc consts  --      0.1255                 0.1350                 0.0757
 IR Inten    --      4.1491                29.4232                23.1796

                     10                     11                     12
                      A                      A                      A
 Frequencies --    358.1672               390.8356               401.0072
 Red. masses --      3.7289                 4.0660                 2.1307
 Frc consts  --      0.2818                 0.3659                 0.2019
 IR Inten    --      4.7003                 0.5990                 3.3866

                     13                     14                     15
                      A                      A                      A
 Frequencies --    441.5594               566.8750               642.0545
 Red. masses --      6.2746                 2.7979                 3.3707
 Frc consts  --      0.7208                 0.5297                 0.8187
 IR Inten    --      5.2575                14.5353                15.2473

                     16                     17                     18
                      A                      A                      A
 Frequencies --    774.3281               811.5670               840.2039
 Red. masses --      3.5903                 2.1228                 1.2501
 Frc consts  --      1.2683                 0.8238                 0.5199
 IR Inten    --     27.7826                 7.6238               142.0630

                     19                     20                     21
                      A                      A                      A
 Frequencies --    874.3009               883.6375               947.2661
 Red. masses --      2.1999                 1.5888                 3.3085
 Frc consts  --      0.9908                 0.7309                 1.7491
 IR Inten    --     35.2620                40.8326                15.1567

                     22                     23                     24
                      A                      A                      A
 Frequencies --    983.5660              1028.8722              1050.9122
 Red. masses --      1.8009                 2.0473                 2.9282
 Frc consts  --      1.0265                 1.2769                 1.9054
 IR Inten    --     22.2359                 8.8392                20.4917

                     25                     26                     27
                      A                      A                      A
 Frequencies --   1108.4247              1152.0015              1155.8964
 Red. masses --      2.1600                 1.7213                 1.0925
 Frc consts  --      1.5635                 1.3459                 0.8600
 IR Inten    --     10.3125                 5.6195                40.2720

                     28                     29                     30
                      A                      A                      A
 Frequencies --   1202.3299              1219.9600              1275.6156
 Red. masses --      1.3065                 1.1729                 1.4322
 Frc consts  --      1.1127                 1.0285                 1.3731
 IR Inten    --     19.5188                47.0186                53.5919

                     31                     32                     33
                      A                      A                      A
 Frequencies --   1293.1222              1330.4956              1371.1539
 Red. masses --      1.4032                 1.7581                 1.6050
 Frc consts  --      1.3825                 1.8336                 1.7779
 IR Inten    --      0.9179                 4.7703                 2.6189

                     34                     35                     36
                      A                      A                      A
 Frequencies --   1419.0166              1435.4502              1463.4011
 Red. masses --      1.3233                 1.2966                 1.0937
 Frc consts  --      1.5700                 1.5741                 1.3801
 IR Inten    --     14.6292                16.9692                11.5465

                     37                     38                     39
                      A                      A                      A
 Frequencies --   1510.0895              1645.4971              1653.1004
 Red. masses --      1.0858                 1.0904                 1.1160
 Frc consts  --      1.4589                 1.7395                 1.7969
 IR Inten    --      3.0930                38.5509                33.8446

                     40                     41                     42
                      A                      A                      A
 Frequencies --   1742.1336              2359.9115              2900.8046
 Red. masses --      7.8021                12.6070                 1.0735
 Frc consts  --     13.9515                41.3670                 5.3221
 IR Inten    --     41.4892                 8.4327                88.1478

                     43                     44                     45
                      A                      A                      A
 Frequencies --   3035.9545              3043.1636              3064.1649
 Red. masses --      1.0602                 1.0842                 1.0877
 Frc consts  --      5.7575                 5.9160                 6.0168
 IR Inten    --      4.7851                18.9225                34.1412

                     46                     47                     48
                      A                      A                      A
 Frequencies --   3078.7709              3416.7913              3487.6636
 Red. masses --      1.1014                 1.0723                 1.0491
 Frc consts  --      6.1511                 7.3756                 7.5186
 IR Inten    --     10.6035                 1.0270                 2.6384

                     49                     50                     51
                      A                      A                      A
 Frequencies --   3508.9463              3566.6804              3593.5320
 Red. masses --      1.0486                 1.0930                 1.0934
 Frc consts  --      7.6071                 8.1919                 8.3188
 IR Inten    --      1.6938                 4.1953                 4.4829

 - Thermochemistry -
 -------------------
 Temperature   298.150 Kelvin.  Pressure   1.00000 Atm.
 Atom     1 has atomic number  7 and mass  14.00307

 Molecular mass:   126.09055 amu.
 Principal axes and moments of inertia in atomic units:
                           1         2         3
     Eigenvalues --   694.233201573.355941850.08648
           X            0.99983   0.01792  -0.00445
           Y           -0.01777   0.99934   0.03182
           Z            0.00501  -0.03173   0.99948
 This molecule is an asymmetric top.
 Rotational symmetry number  1.
 Warning -- assumption of classical behavior for rotation
           may cause significant error
 Rotational temperatures (Kelvin)      0.12476     0.05505     0.04682
 Rotational constants (GHZ):           2.59962     1.14706     0.97549
 Zero-point vibrational energy     417976.5 (Joules/Mol)
                                   99.89878 (Kcal/Mol)
 Warning -- explicit consideration of  14 degrees of freedom as
           vibrations may cause significant error
 Vibrational temperatures:     98.69   140.07   174.40   207.48   319.16
          (Kelvin)            359.61   443.87   455.18   464.70   515.32
                              562.33   576.96   635.31   815.61   923.77
                             1114.09  1167.66  1208.87  1257.92  1271.36
                             1362.90  1415.13  1480.32  1512.03  1594.78
                             1657.47  1663.08  1729.88  1755.25  1835.33
                             1860.51  1914.29  1972.78  2041.65  2065.29
                             2105.51  2172.68  2367.50  2378.44  2506.54
                             3395.39  4173.61  4368.06  4378.43  4408.65
                             4429.66  4916.00  5017.97  5048.59  5131.66
                             5170.29

 Zero-point correction=                           0.159199 (Hartree/Particle)
 Thermal correction to Energy=                    0.169362
 Thermal correction to Enthalpy=                  0.170306
 Thermal correction to Gibbs Free Energy=         0.124124
 Sum of electronic and zero-point Energies=           -415.379289
 Sum of electronic and thermal Energies=              -415.369126
 Sum of electronic and thermal Enthalpies=            -415.368182
 Sum of electronic and thermal Free Energies=         -415.414364

                     E (Thermal)             CV                S
                      KCal/Mol        Cal/Mol-Kelvin    Cal/Mol-Kelvin
 Total                  106.276             36.820             97.198
 Electronic               0.000              0.000              0.000
 Translational            0.889              2.981             40.409
 Rotational               0.889              2.981             29.093
 Vibrational            104.499             30.859             27.697
 Vibration     1          0.598              1.969              4.193
 Vibration     2          0.603              1.951              3.507
 Vibration     3          0.609              1.932              3.081
 Vibration     4          0.616              1.909              2.747
 Vibration     5          0.648              1.808              1.944
 Vibration     6          0.663              1.763              1.731
 Vibration     7          0.698              1.658              1.370
 Vibration     8          0.703              1.642              1.329
 Vibration     9          0.708              1.629              1.295
 Vibration    10          0.733              1.558              1.130
 Vibration    11          0.759              1.490              0.997
 Vibration    12          0.767              1.468              0.959
 Vibration    13          0.801              1.380              0.822
 Vibration    14          0.923              1.103              0.510

                           ! Non-Optimized Parameters !
 Normal termination of Gaussian 16 at Tue Jun  1 08:16:47 2021.
