 Gaussian 16, Revision A.03,
 Gaussian 16:  ES64L-G16RevA.03 25-Dec-2016

 -----------------------------
 # opt freq b3lyp/6-31g(2df,p)
 -----------------------------

 -------------------
 Title Card Required
 -------------------
 Symbolic Z-matrix:
 Charge =  0 Multiplicity = 1

 SCF Done:  E(RB3LYP) =  -415.528202913     A.U. after   15 cycles
 SCF Done:  E(RB3LYP) =  -415.551865778     A.U. after   13 cycles
 SCF Done:  E(RB3LYP) =  -415.551171837     A.U. after   15 cycles
 SCF Done:  E(RB3LYP) =  -415.551969615     A.U. after   14 cycles
 SCF Done:  E(RB3LYP) =  -415.554146228     A.U. after   12 cycles
 SCF Done:  E(RB3LYP) =  -415.555924965     A.U. after   15 cycles
 SCF Done:  E(RB3LYP) =  -415.551221679     A.U. after   15 cycles
 SCF Done:  E(RB3LYP) =  -415.557433638     A.U. after   13 cycles
 SCF Done:  E(RB3LYP) =  -415.558004388     A.U. after   12 cycles
 SCF Done:  E(RB3LYP) =  -415.558473500     A.U. after   11 cycles
 SCF Done:  E(RB3LYP) =  -415.558622542     A.U. after   12 cycles
 SCF Done:  E(RB3LYP) =  -415.558702070     A.U. after   11 cycles
 SCF Done:  E(RB3LYP) =  -415.558739564     A.U. after   11 cycles
 SCF Done:  E(RB3LYP) =  -415.558778550     A.U. after   11 cycles
 SCF Done:  E(RB3LYP) =  -415.558782450     A.U. after    9 cycles
 SCF Done:  E(RB3LYP) =  -415.558784706     A.U. after    9 cycles
 SCF Done:  E(RB3LYP) =  -415.558785315     A.U. after    7 cycles
 Optimization completed.
    -- Stationary point found.
 Normal termination of Gaussian 16 at Tue Jun  1 00:01:43 2021.

 ----------------------------------------------------------------------
 #N Geom=AllCheck Guess=TCheck SCRF=Check GenChk RB3LYP/6-31G(2df,p) Fr
 eq
 ----------------------------------------------------------------------

 Structure from the checkpoint file:  "NtCCCpNpCNdCN.chk"
 -------------------
 Title Card Required
 -------------------
 Charge =  0 Multiplicity = 1

                         Standard orientation:
 ---------------------------------------------------------------------
 Center     Atomic      Atomic             Coordinates (Angstroms)
 Number     Number       Type             X           Y           Z
 ---------------------------------------------------------------------
      1          7           0       -3.991694    0.655323   -0.403816
      2          6           0       -3.095395   -0.023489   -0.134535
      3          6           0       -1.928721   -0.836407    0.193266
      4          6           0       -0.597451   -0.110943   -0.165201
      5          7           0       -0.459307    1.218272    0.416993
      6          6           0        0.597329   -0.989464    0.252606
      7          7           0        1.802510   -0.585590   -0.429285
      8          6           0        2.669337    0.056640    0.239951
      9          7           0        3.868928    0.460279   -0.292295
     10          1           0       -2.001040   -1.792770   -0.337454
     11          1           0       -1.951022   -1.063332    1.266965
     12          1           0       -0.557273    0.004049   -1.253573
     13          1           0       -0.602359    1.179602    1.423341
     14          1           0       -1.167385    1.845375    0.046956
     15          1           0        0.376855   -2.032942   -0.007677
     16          1           0        0.687215   -0.946248    1.355252
     17          1           0        2.563850    0.296304    1.307486
     18          1           0        3.917468    0.444881   -1.300974
     19          1           0        4.320043    1.249068    0.141972
 ---------------------------------------------------------------------

 SCF Done:  E(RB3LYP) =  -415.558785315     A.U. after    1 cycles

 The electronic state is 1-A.
 Alpha  occ. eigenvalues --  -14.34482 -14.32505 -14.31818 -14.29716 -10.24834
 Alpha  occ. eigenvalues --  -10.22980 -10.22882 -10.21864 -10.21095  -0.94690
 Alpha  occ. eigenvalues --   -0.90884  -0.89297  -0.86494  -0.78066  -0.71180
 Alpha  occ. eigenvalues --   -0.61542  -0.59000  -0.54240  -0.51372  -0.50221
 Alpha  occ. eigenvalues --   -0.47201  -0.46230  -0.45718  -0.43305  -0.40777
 Alpha  occ. eigenvalues --   -0.38689  -0.36670  -0.35673  -0.34468  -0.32427
 Alpha  occ. eigenvalues --   -0.32150  -0.24989  -0.24958  -0.23313
 Alpha virt. eigenvalues --    0.02365   0.04091   0.04293   0.07587   0.08358
 Alpha virt. eigenvalues --    0.09951   0.11777   0.12372   0.14624   0.15594
 Alpha virt. eigenvalues --    0.16286   0.17338   0.18356   0.19536   0.21498

 Mulliken charges:
               1
     1  N   -0.311045
     2  C    0.254137
     3  C   -0.358043
     4  C    0.038682
     5  N   -0.506547
     6  C   -0.150874
     7  N   -0.211566
     8  C    0.113110
     9  N   -0.501425
    10  H    0.150675
    11  H    0.142247
    12  H    0.112453
    13  H    0.220692
    14  H    0.245403
    15  H    0.096111
    16  H    0.071844
    17  H    0.081769
    18  H    0.257150
    19  H    0.255228
 Sum of Mulliken charges =  -0.00000

 Dipole moment (field-independent basis, Debye):
    X=              3.5884    Y=             -0.2779    Z=              1.8999  Tot=              4.0698
 Quadrupole moment (field-independent basis, Debye-Ang):
   XX=            -64.4862   YY=            -52.3605   ZZ=            -50.5936
   XY=             12.3953   XZ=             -2.9269   YZ=              0.2704

  Exact polarizability: 111.982   4.788  68.654   2.281   0.747  64.527
 Approx polarizability: 143.868   3.125 107.831   9.099   2.312 103.440

                      1                      2                      3
                      A                      A                      A
 Frequencies --     47.6616                56.0351                95.1208
 Red. masses --      4.7494                 5.3494                 2.7499
 Frc consts  --      0.0064                 0.0099                 0.0147
 IR Inten    --      5.4354                 2.6297                12.4729

                      4                      5                      6
                      A                      A                      A
 Frequencies --    132.0101               189.2767               268.1532
 Red. masses --      4.3332                 2.4746                 3.8131
 Frc consts  --      0.0445                 0.0522                 0.1615
 IR Inten    --     11.8891                 1.0865                 2.5132

                      7                      8                      9
                      A                      A                      A
 Frequencies --    286.8264               317.8885               348.1280
 Red. masses --      1.2026                 2.9295                 2.8547
 Frc consts  --      0.0583                 0.1744                 0.2038
 IR Inten    --     22.8186                13.0711                12.2836

                     10                     11                     12
                      A                      A                      A
 Frequencies --    399.2417               415.2248               425.1095
 Red. masses --      3.0644                 4.5036                 1.2368
 Frc consts  --      0.2878                 0.4575                 0.1317
 IR Inten    --      1.4396                 2.3368               155.7661

                     13                     14                     15
                      A                      A                      A
 Frequencies --    456.8135               579.6226               607.3420
 Red. masses --      2.0056                 2.3548                 2.2017
 Frc consts  --      0.2466                 0.4661                 0.4785
 IR Inten    --     28.3626               108.6461                48.0377

                     16                     17                     18
                      A                      A                      A
 Frequencies --    619.0022               852.7676               859.5603
 Red. masses --      2.2907                 2.4144                 1.4951
 Frc consts  --      0.5171                 1.0345                 0.6509
 IR Inten    --     48.0807               101.9643                56.8523

                     19                     20                     21
                      A                      A                      A
 Frequencies --    906.7071               950.1702               987.2188
 Red. masses --      2.6404                 2.7245                 2.1934
 Frc consts  --      1.2790                 1.4492                 1.2595
 IR Inten    --      1.5976                15.3111                29.0266

                     22                     23                     24
                      A                      A                      A
 Frequencies --    993.0423              1022.3749              1045.6573
 Red. masses --      1.6003                 1.7453                 2.5079
 Frc consts  --      0.9298                 1.0748                 1.6156
 IR Inten    --      0.8757                 7.1504                21.5912

                     25                     26                     27
                      A                      A                      A
 Frequencies --   1136.1526              1170.0661              1186.9780
 Red. masses --      2.3125                 2.3422                 1.2423
 Frc consts  --      1.7588                 1.8893                 1.0313
 IR Inten    --      3.8870                 9.4406                 1.6067

                     28                     29                     30
                      A                      A                      A
 Frequencies --   1216.4975              1275.2848              1299.8565
 Red. masses --      1.2005                 1.2302                 2.3605
 Frc consts  --      1.0467                 1.1788                 2.3499
 IR Inten    --      8.7224                 1.2012                82.6498

                     31                     32                     33
                      A                      A                      A
 Frequencies --   1321.8980              1343.0916              1381.7474
 Red. masses --      1.3258                 1.3417                 1.3123
 Frc consts  --      1.3650                 1.4260                 1.4762
 IR Inten    --      2.8106                15.5801                10.9442

                     34                     35                     36
                      A                      A                      A
 Frequencies --   1411.6012              1421.5124              1461.7322
 Red. masses --      1.3767                 1.3512                 1.0948
 Frc consts  --      1.6163                 1.6087                 1.3782
 IR Inten    --      4.2937                 6.2412                 3.9268

                     37                     38                     39
                      A                      A                      A
 Frequencies --   1491.5715              1628.3415              1660.4397
 Red. masses --      1.1088                 1.1929                 1.0932
 Frc consts  --      1.4534                 1.8635                 1.7759
 IR Inten    --     13.0456                33.6322                24.0249

                     40                     41                     42
                      A                      A                      A
 Frequencies --   1768.3841              2356.8963              2917.0139
 Red. masses --      6.3563                12.6022                 1.0704
 Frc consts  --     11.7114                41.2454                 5.3662
 IR Inten    --    433.3129                15.4772                64.7867

                     43                     44                     45
                      A                      A                      A
 Frequencies --   3020.7251              3026.5147              3032.0638
 Red. masses --      1.0861                 1.0741                 1.0741
 Frc consts  --      5.8390                 5.7969                 5.8180
 IR Inten    --     59.2393                 8.7298                32.6716

                     46                     47                     48
                      A                      A                      A
 Frequencies --   3059.8799              3078.7603              3481.3493
 Red. masses --      1.0866                 1.0982                 1.0498
 Frc consts  --      5.9941                 6.1331                 7.4961
 IR Inten    --      7.5824                18.3235                 0.5477

                     49                     50                     51
                      A                      A                      A
 Frequencies --   3565.8254              3575.0080              3696.4069
 Red. masses --      1.0915                 1.0468                 1.0995
 Frc consts  --      8.1772                 7.8822                 8.8512
 IR Inten    --      1.6508                29.8970                26.2874

 - Thermochemistry -
 -------------------
 Temperature   298.150 Kelvin.  Pressure   1.00000 Atm.
 Atom     1 has atomic number  7 and mass  14.00307

 Molecular mass:   126.09055 amu.
 Principal axes and moments of inertia in atomic units:
                           1         2         3
     Eigenvalues --   330.196692884.455263060.78848
           X            0.99991   0.01281  -0.00279
           Y           -0.01283   0.99990  -0.00614
           Z            0.00271   0.00618   0.99998
 This molecule is an asymmetric top.
 Rotational symmetry number  1.
 Rotational temperatures (Kelvin)      0.26231     0.03003     0.02830
 Rotational constants (GHZ):           5.46566     0.62568     0.58963
 Zero-point vibrational energy     417775.2 (Joules/Mol)
                                   99.85066 (Kcal/Mol)
 Warning -- explicit consideration of  16 degrees of freedom as
           vibrations may cause significant error
 Vibrational temperatures:     68.57    80.62   136.86   189.93   272.33
          (Kelvin)            385.81   412.68   457.37   500.88   574.42
                              597.42   611.64   657.25   833.95   873.83
                              890.61  1226.94  1236.72  1304.55  1367.08
                             1420.39  1428.77  1470.97  1504.47  1634.67
                             1683.46  1707.80  1750.27  1834.85  1870.20
                             1901.92  1932.41  1988.03  2030.98  2045.24
                             2103.11  2146.04  2342.82  2389.00  2544.31
                             3391.05  4196.93  4346.15  4354.48  4362.46
                             4402.48  4429.65  5008.89  5130.43  5143.64
                             5318.31

 Zero-point correction=                           0.159122 (Hartree/Particle)
 Thermal correction to Energy=                    0.169422
 Thermal correction to Enthalpy=                  0.170367
 Thermal correction to Gibbs Free Energy=         0.122920
 Sum of electronic and zero-point Energies=           -415.399663
 Sum of electronic and thermal Energies=              -415.389363
 Sum of electronic and thermal Enthalpies=            -415.388419
 Sum of electronic and thermal Free Energies=         -415.435865

                     E (Thermal)             CV                S
                      KCal/Mol        Cal/Mol-Kelvin    Cal/Mol-Kelvin
 Total                  106.314             36.613             99.859
 Electronic               0.000              0.000              0.000
 Translational            0.889              2.981             40.409
 Rotational               0.889              2.981             29.457
 Vibrational            104.537             30.651             29.994
 Vibration     1          0.595              1.978              4.912
 Vibration     2          0.596              1.975              4.592
 Vibration     3          0.603              1.953              3.552
 Vibration     4          0.612              1.921              2.917
 Vibration     5          0.633              1.855              2.235
 Vibration     6          0.673              1.732              1.608
 Vibration     7          0.684              1.698              1.493
 Vibration     8          0.704              1.639              1.321
 Vibration     9          0.726              1.579              1.175
 Vibration    10          0.765              1.472              0.965
 Vibration    11          0.779              1.437              0.908
 Vibration    12          0.787              1.416              0.875
 Vibration    13          0.815              1.346              0.775
 Vibration    14          0.936              1.075              0.486
 Vibration    15          0.966              1.016              0.437
 Vibration    16          0.979              0.992              0.418

 Optimization completed.
    -- Stationary point found.
 Normal termination of Gaussian 16 at Tue Jun  1 00:25:29 2021.
