 Gaussian 16, Revision A.03,
 Gaussian 16:  ES64L-G16RevA.03 25-Dec-2016

 -----------------------------
 # opt freq b3lyp/6-31g(2df,p)
 -----------------------------

 -------------------
 Title Card Required
 -------------------
 Symbolic Z-matrix:
 Charge =  0 Multiplicity = 1

 SCF Done:  E(RB3LYP) =  -431.435188990     A.U. after   14 cycles
 SCF Done:  E(RB3LYP) =  -431.463457104     A.U. after   13 cycles
 SCF Done:  E(RB3LYP) =  -431.465734184     A.U. after   12 cycles
 SCF Done:  E(RB3LYP) =  -431.456039049     A.U. after   15 cycles
 SCF Done:  E(RB3LYP) =  -431.467184956     A.U. after   12 cycles
 SCF Done:  E(RB3LYP) =  -431.462097976     A.U. after   14 cycles
 SCF Done:  E(RB3LYP) =  -431.467620851     A.U. after   11 cycles
 SCF Done:  E(RB3LYP) =  -431.467777012     A.U. after   11 cycles
 SCF Done:  E(RB3LYP) =  -431.468014776     A.U. after   12 cycles
 SCF Done:  E(RB3LYP) =  -431.468500179     A.U. after   12 cycles
 SCF Done:  E(RB3LYP) =  -431.469141437     A.U. after   12 cycles
 SCF Done:  E(RB3LYP) =  -431.469377611     A.U. after    8 cycles
 SCF Done:  E(RB3LYP) =  -431.469415284     A.U. after   10 cycles
 SCF Done:  E(RB3LYP) =  -431.469435881     A.U. after   10 cycles
 SCF Done:  E(RB3LYP) =  -431.469440128     A.U. after    8 cycles
 SCF Done:  E(RB3LYP) =  -431.469441448     A.U. after    9 cycles
 SCF Done:  E(RB3LYP) =  -431.469441715     A.U. after    8 cycles
 SCF Done:  E(RB3LYP) =  -431.469441881     A.U. after    8 cycles
 SCF Done:  E(RB3LYP) =  -431.469441925     A.U. after    7 cycles
 Optimization completed.
    -- Stationary point found.
 Normal termination of Gaussian 16 at Tue Jun  1 12:56:38 2021.

 ----------------------------------------------------------------------
 #N Geom=AllCheck Guess=TCheck SCRF=Check GenChk RB3LYP/6-31G(2df,p) Fr
 eq
 ----------------------------------------------------------------------

 Structure from the checkpoint file:  "NtCCNCN1CNN1.chk"
 -------------------
 Title Card Required
 -------------------
 Charge =  0 Multiplicity = 1

                         Standard orientation:
 ---------------------------------------------------------------------
 Center     Atomic      Atomic             Coordinates (Angstroms)
 Number     Number       Type             X           Y           Z
 ---------------------------------------------------------------------
      1          7           0       -3.701050   -1.079125   -0.344844
      2          6           0       -2.848328   -0.413661    0.059831
      3          6           0       -1.775195    0.451140    0.560108
      4          7           0       -0.742749    0.641667   -0.453140
      5          6           0        0.431637    1.412633   -0.015437
      6          7           0        1.642600    0.650510    0.164628
      7          6           0        1.668624   -0.579401    0.970018
      8          7           0        2.571411   -1.151429   -0.049990
      9          7           0        2.047901   -0.138915   -1.023962
     10          1           0       -1.331940   -0.031114    1.438574
     11          1           0       -2.232243    1.390357    0.917352
     12          1           0       -1.150105    1.036421   -1.291099
     13          1           0        0.235702    1.936793    0.930044
     14          1           0        0.654052    2.168599   -0.775838
     15          1           0        0.693289   -1.097561    1.030911
     16          1           0        2.101897   -0.467634    1.969866
     17          1           0        2.287267   -2.082243   -0.347972
     18          1           0        1.154874   -0.536837   -1.367804
 ---------------------------------------------------------------------

 SCF Done:  E(RB3LYP) =  -431.469441926     A.U. after    1 cycles

 The electronic state is 1-A.
 Alpha  occ. eigenvalues --  -14.37236 -14.35692 -14.35630 -14.35113 -14.34241
 Alpha  occ. eigenvalues --  -10.27673 -10.25910 -10.24765 -10.23331  -1.04386
 Alpha  occ. eigenvalues --   -0.94950  -0.91049  -0.84954  -0.76615  -0.75595
 Alpha  occ. eigenvalues --   -0.68203  -0.59382  -0.56295  -0.54858  -0.50442
 Alpha  occ. eigenvalues --   -0.50168  -0.48037  -0.45799  -0.44674  -0.42612
 Alpha  occ. eigenvalues --   -0.39868  -0.39139  -0.36886  -0.34508  -0.33995
 Alpha  occ. eigenvalues --   -0.30026  -0.27313  -0.26287  -0.20913
 Alpha virt. eigenvalues --    0.00767   0.02445   0.05476   0.06160   0.08098
 Alpha virt. eigenvalues --    0.08437   0.10220   0.12355   0.13942   0.15022
 Alpha virt. eigenvalues --    0.16208   0.16585   0.17194   0.18234   0.20747

 Mulliken charges:
               1
     1  N   -0.290687
     2  C    0.258257
     3  C   -0.273500
     4  N   -0.301073
     5  C   -0.145982
     6  N   -0.038134
     7  C   -0.108226
     8  N   -0.273310
     9  N   -0.268726
    10  H    0.160497
    11  H    0.142798
    12  H    0.243244
    13  H    0.114618
    14  H    0.131321
    15  H    0.082518
    16  H    0.117355
    17  H    0.233066
    18  H    0.215964
 Sum of Mulliken charges =  -0.00000

 Dipole moment (field-independent basis, Debye):
    X=             -0.7834    Y=              1.6566    Z=              1.7113  Tot=              2.5073
 Quadrupole moment (field-independent basis, Debye-Ang):
   XX=            -79.8455   YY=            -49.8257   ZZ=            -50.5885
   XY=            -10.7786   XZ=             -0.5162   YZ=             -1.0729

  Exact polarizability:  86.685   1.957  70.240   2.603   2.003  65.640
 Approx polarizability: 117.004   9.637 106.591   6.772   6.055 103.929

                      1                      2                      3
                      A                      A                      A
 Frequencies --     37.4794                82.6944               103.7426
 Red. masses --      5.6741                 3.5666                 2.6527
 Frc consts  --      0.0047                 0.0144                 0.0168
 IR Inten    --      9.0850                15.7470                 1.6997

                      4                      5                      6
                      A                      A                      A
 Frequencies --    168.1149               179.5579               287.1348
 Red. masses --      3.5733                 4.2979                 4.4921
 Frc consts  --      0.0595                 0.0816                 0.2182
 IR Inten    --      9.2680                 3.6047                 1.3695

                      7                      8                      9
                      A                      A                      A
 Frequencies --    307.3401               368.9959               385.6159
 Red. masses --      2.5539                 2.2770                 3.4493
 Frc consts  --      0.1421                 0.1827                 0.3022
 IR Inten    --      1.0098                 2.8722                 1.0436

                     10                     11                     12
                      A                      A                      A
 Frequencies --    510.7508               620.9065               668.3990
 Red. masses --      5.3729                 4.3877                 1.8249
 Frc consts  --      0.8258                 0.9967                 0.4803
 IR Inten    --      7.9950                10.8201                40.0417

                     13                     14                     15
                      A                      A                      A
 Frequencies --    750.8587               790.2548               876.3560
 Red. masses --      2.2726                 2.7218                 2.7074
 Frc consts  --      0.7549                 1.0015                 1.2251
 IR Inten    --     74.1900                 8.7106                10.2731

                     16                     17                     18
                      A                      A                      A
 Frequencies --    945.0057               947.5851               977.8935
 Red. masses --      4.4962                 5.3500                 2.9521
 Frc consts  --      2.3657                 2.8304                 1.6633
 IR Inten    --      2.8992                 1.8507                18.9277

                     19                     20                     21
                      A                      A                      A
 Frequencies --   1014.5603              1025.9838              1044.1254
 Red. masses --      3.5376                 2.0972                 1.4988
 Frc consts  --      2.1454                 1.3007                 0.9627
 IR Inten    --     39.0791                 0.7676                16.1751

                     22                     23                     24
                      A                      A                      A
 Frequencies --   1094.9141              1133.7908              1160.0902
 Red. masses --      3.1208                 1.6147                 1.4678
 Frc consts  --      2.2043                 1.2230                 1.1639
 IR Inten    --     78.5632                 2.3951                11.3709

                     25                     26                     27
                      A                      A                      A
 Frequencies --   1169.5979              1220.9457              1263.1704
 Red. masses --      1.8850                 1.9781                 1.5361
 Frc consts  --      1.5193                 1.7374                 1.4441
 IR Inten    --     26.7440                41.4517                15.8696

                     28                     29                     30
                      A                      A                      A
 Frequencies --   1279.4521              1327.4552              1361.3925
 Red. masses --      1.2871                 1.2186                 1.2938
 Frc consts  --      1.2414                 1.2651                 1.4128
 IR Inten    --     10.5871                37.0339                 4.0530

                     31                     32                     33
                      A                      A                      A
 Frequencies --   1380.6832              1396.8455              1406.3543
 Red. masses --      1.2703                 1.2518                 1.2382
 Frc consts  --      1.4267                 1.4390                 1.4429
 IR Inten    --     22.0497                11.8425                24.8388

                     34                     35                     36
                      A                      A                      A
 Frequencies --   1433.7102              1456.7141              1490.4912
 Red. masses --      1.1879                 1.0876                 1.1242
 Frc consts  --      1.4387                 1.3598                 1.4715
 IR Inten    --     26.1716                10.5342                 4.1087

                     37                     38                     39
                      A                      A                      A
 Frequencies --   1493.2879              1519.6375              2368.7346
 Red. masses --      1.1561                 1.1129                12.6181
 Frc consts  --      1.5189                 1.5143                41.7136
 IR Inten    --     13.1473                 6.3749                 2.5768

                     40                     41                     42
                      A                      A                      A
 Frequencies --   2919.9745              2957.0375              3013.8694
 Red. masses --      1.0678                 1.0720                 1.0631
 Frc consts  --      5.3643                 5.5226                 5.6896
 IR Inten    --     90.6544                37.4981                37.2650

                     43                     44                     45
                      A                      A                      A
 Frequencies --   3060.9162              3063.8828              3079.6109
 Red. masses --      1.0929                 1.0863                 1.1017
 Frc consts  --      6.0329                 6.0082                 6.1558
 IR Inten    --     56.6696                 0.7848                12.7079

                     46                     47                     48
                      A                      A                      A
 Frequencies --   3206.0807              3487.2010              3562.9466
 Red. masses --      1.0744                 1.0764                 1.0755
 Frc consts  --      6.5067                 7.7120                 8.0442
 IR Inten    --     15.1095                 1.2536                 8.0442

 - Thermochemistry -
 -------------------
 Temperature   298.150 Kelvin.  Pressure   1.00000 Atm.
 Atom     1 has atomic number  7 and mass  14.00307

 Molecular mass:   127.08580 amu.
 Principal axes and moments of inertia in atomic units:
                           1         2         3
     Eigenvalues --   516.009882240.995122415.85485
           X            0.99981  -0.01945  -0.00026
           Y            0.01945   0.99975  -0.01082
           Z            0.00047   0.01081   0.99994
 This molecule is an asymmetric top.
 Rotational symmetry number  1.
 Warning -- assumption of classical behavior for rotation
           may cause significant error
 Rotational temperatures (Kelvin)      0.16785     0.03865     0.03585
 Rotational constants (GHZ):           3.49749     0.80533     0.74704
 Zero-point vibrational energy     391191.7 (Joules/Mol)
                                   93.49706 (Kcal/Mol)
 Warning -- explicit consideration of  10 degrees of freedom as
           vibrations may cause significant error
 Vibrational temperatures:     53.92   118.98   149.26   241.88   258.34
          (Kelvin)            413.12   442.19   530.90   554.82   734.86
                              893.35   961.68  1080.32  1137.00  1260.88
                             1359.65  1363.36  1406.97  1459.73  1476.16
                             1502.26  1575.34  1631.27  1669.11  1682.79
                             1756.67  1817.42  1840.85  1909.91  1958.74
                             1986.50  2009.75  2023.43  2062.79  2095.89
                             2144.48  2148.51  2186.42  3408.08  4201.19
                             4254.52  4336.29  4403.98  4408.24  4430.87
                             4612.84  5017.30  5126.29

 Zero-point correction=                           0.148997 (Hartree/Particle)
 Thermal correction to Energy=                    0.158055
 Thermal correction to Enthalpy=                  0.158999
 Thermal correction to Gibbs Free Energy=         0.113729
 Sum of electronic and zero-point Energies=           -431.320445
 Sum of electronic and thermal Energies=              -431.311387
 Sum of electronic and thermal Enthalpies=            -431.310443
 Sum of electronic and thermal Free Energies=         -431.355713

                     E (Thermal)             CV                S
                      KCal/Mol        Cal/Mol-Kelvin    Cal/Mol-Kelvin
 Total                   99.181             31.859             95.278
 Electronic               0.000              0.000              0.000
 Translational            0.889              2.981             40.432
 Rotational               0.889              2.981             29.414
 Vibrational             97.403             25.897             25.431
 Vibration     1          0.594              1.982              5.388
 Vibration     2          0.600              1.961              3.826
 Vibration     3          0.605              1.946              3.383
 Vibration     4          0.625              1.882              2.456
 Vibration     5          0.629              1.867              2.333
 Vibration     6          0.684              1.698              1.491
 Vibration     7          0.697              1.660              1.377
 Vibration     8          0.741              1.536              1.084
 Vibration     9          0.754              1.501              1.017
 Vibration    10          0.866              1.226              0.632

                           ! Non-Optimized Parameters !
 Normal termination of Gaussian 16 at Tue Jun  1 13:21:39 2021.
