 Gaussian 16, Revision A.03,
 Gaussian 16:  ES64L-G16RevA.03 25-Dec-2016

 -----------------------------
 # opt freq b3lyp/6-31g(2df,p)
 -----------------------------

 -------------------
 Title Card Required
 -------------------
 Symbolic Z-matrix:
 Charge =  0 Multiplicity = 1

 SCF Done:  E(RB3LYP) =  -303.587855134     A.U. after   15 cycles
 SCF Done:  E(RB3LYP) =  -303.611278040     A.U. after   13 cycles
 SCF Done:  E(RB3LYP) =  -303.611562753     A.U. after   12 cycles
 SCF Done:  E(RB3LYP) =  -303.607198261     A.U. after   15 cycles
 SCF Done:  E(RB3LYP) =  -303.611112985     A.U. after   13 cycles
 SCF Done:  E(RB3LYP) =  -303.611786111     A.U. after   10 cycles
 SCF Done:  E(RB3LYP) =  -303.612157478     A.U. after   12 cycles
 SCF Done:  E(RB3LYP) =  -303.612288400     A.U. after   11 cycles
 SCF Done:  E(RB3LYP) =  -303.612609946     A.U. after   12 cycles
 SCF Done:  E(RB3LYP) =  -303.613141258     A.U. after   13 cycles
 SCF Done:  E(RB3LYP) =  -303.614572873     A.U. after   12 cycles
 SCF Done:  E(RB3LYP) =  -303.615112258     A.U. after   11 cycles
 SCF Done:  E(RB3LYP) =  -303.615590078     A.U. after   11 cycles
 SCF Done:  E(RB3LYP) =  -303.615993456     A.U. after   11 cycles
 SCF Done:  E(RB3LYP) =  -303.616190690     A.U. after   10 cycles
 SCF Done:  E(RB3LYP) =  -303.616254757     A.U. after   11 cycles
 SCF Done:  E(RB3LYP) =  -303.616264486     A.U. after    9 cycles
 SCF Done:  E(RB3LYP) =  -303.616265558     A.U. after    7 cycles
 SCF Done:  E(RB3LYP) =  -303.616266110     A.U. after    8 cycles
 Optimization completed.
    -- Stationary point found.
 Normal termination of Gaussian 16 at Tue Jun  1 14:38:47 2021.

 ----------------------------------------------------------------------
 #N Geom=AllCheck Guess=TCheck SCRF=Check GenChk RB3LYP/6-31G(2df,p) Fr
 eq
 ----------------------------------------------------------------------

 Structure from the checkpoint file:  "NtCC1CdCNC1.chk"
 -------------------
 Title Card Required
 -------------------
 Charge =  0 Multiplicity = 1

                         Standard orientation:
 ---------------------------------------------------------------------
 Center     Atomic      Atomic             Coordinates (Angstroms)
 Number     Number       Type             X           Y           Z
 ---------------------------------------------------------------------
      1          7           0        2.642112    0.002130   -0.633709
      2          6           0        1.651305    0.002756   -0.037962
      3          6           0        0.398332    0.014596    0.732826
      4          6           0       -0.474020    1.215248    0.381426
      5          6           0       -1.499289    0.788084   -0.362437
      6          7           0       -1.489868   -0.588458   -0.597294
      7          6           0       -0.543804   -1.175299    0.366394
      8          1           0        0.674488   -0.025038    1.791713
      9          1           0       -0.200483    2.237484    0.588672
     10          1           0       -2.275279    1.389072   -0.819401
     11          1           0       -2.393114   -1.039761   -0.641154
     12          1           0       -0.007086   -2.023567   -0.062380
     13          1           0       -1.059371   -1.506209    1.278089
 ---------------------------------------------------------------------

 SCF Done:  E(RB3LYP) =  -303.616266110     A.U. after    1 cycles

 The electronic state is 1-A.
 Alpha  occ. eigenvalues --  -14.35043 -14.31845 -10.24094 -10.23762 -10.22588
 Alpha  occ. eigenvalues --  -10.21031 -10.18320  -0.95619  -0.89162  -0.79934
 Alpha  occ. eigenvalues --   -0.74596  -0.64484  -0.57647  -0.55173  -0.52210
 Alpha  occ. eigenvalues --   -0.44110  -0.42778  -0.42591  -0.40696  -0.39112
 Alpha  occ. eigenvalues --   -0.34871  -0.33452  -0.31603  -0.31237  -0.21343
 Alpha virt. eigenvalues --    0.01197   0.03819   0.05986   0.07510   0.11161
 Alpha virt. eigenvalues --    0.12915   0.13335   0.14958   0.15867   0.17970
 Alpha virt. eigenvalues --    0.19369   0.20758   0.25237   0.31641   0.32592

 Mulliken charges:
               1
     1  N   -0.327345
     2  C    0.273862
     3  C   -0.185074
     4  C   -0.149829
     5  C    0.000951
     6  N   -0.287394
     7  C   -0.176546
     8  H    0.127964
     9  H    0.113824
    10  H    0.123965
    11  H    0.241001
    12  H    0.134863
    13  H    0.109758
 Sum of Mulliken charges =  -0.00000

 Dipole moment (field-independent basis, Debye):
    X=             -4.5789    Y=             -0.6317    Z=              2.0529  Tot=              5.0577
 Quadrupole moment (field-independent basis, Debye-Ang):
   XX=            -46.3874   YY=            -37.1558   ZZ=            -41.6517
   XY=              1.0378   XZ=              5.2776   YZ=             -0.7768

  Exact polarizability:  72.457   2.104  56.851   2.554   1.237  47.361
 Approx polarizability: 110.721   7.170  84.107   2.976   7.073  80.046

                      1                      2                      3
                      A                      A                      A
 Frequencies --    100.2538               176.8680               259.6429
 Red. masses --      4.2223                 4.7225                 2.9084
 Frc consts  --      0.0250                 0.0870                 0.1155
 IR Inten    --      0.3824                 2.2368                 3.8302

                      4                      5                      6
                      A                      A                      A
 Frequencies --    440.4020               498.1850               586.9641
 Red. masses --      4.0800                 4.1872                 4.4882
 Frc consts  --      0.4662                 0.6123                 0.9111
 IR Inten    --      8.3822                 8.6561                 0.6249

                      7                      8                      9
                      A                      A                      A
 Frequencies --    594.8196               717.6176               798.6557
 Red. masses --      1.6502                 1.3501                 3.1489
 Frc consts  --      0.3440                 0.4096                 1.1834
 IR Inten    --    168.1624                32.2028                 8.7444

                     10                     11                     12
                      A                      A                      A
 Frequencies --    806.1337               843.0118               933.6988
 Red. masses --      3.2206                 4.3229                 1.3533
 Frc consts  --      1.2331                 1.8101                 0.6951
 IR Inten    --      6.5234                25.5773                16.4223

                     13                     14                     15
                      A                      A                      A
 Frequencies --    952.7258               982.4103              1038.8527
 Red. masses --      2.1515                 3.0100                 2.5043
 Frc consts  --      1.1506                 1.7116                 1.5923
 IR Inten    --      5.9574                 4.0178                 4.0958

                     16                     17                     18
                      A                      A                      A
 Frequencies --   1081.5077              1120.3584              1156.3000
 Red. masses --      1.8292                 1.9155                 1.3866
 Frc consts  --      1.2606                 1.4166                 1.0923
 IR Inten    --      0.4614                10.1918                18.3655

                     19                     20                     21
                      A                      A                      A
 Frequencies --   1219.7997              1238.3742              1302.7284
 Red. masses --      1.2831                 1.2662                 1.3508
 Frc consts  --      1.1248                 1.1441                 1.3506
 IR Inten    --      4.1729                 3.8479                21.0557

                     22                     23                     24
                      A                      A                      A
 Frequencies --   1336.8932              1365.3281              1452.9684
 Red. masses --      1.3190                 1.4607                 1.6102
 Frc consts  --      1.3890                 1.6043                 2.0028
 IR Inten    --      9.1371                12.6255                20.2508

                     25                     26                     27
                      A                      A                      A
 Frequencies --   1510.5097              1674.6171              2351.1919
 Red. masses --      1.1001                 5.2449                12.6439
 Frc consts  --      1.4789                 8.6659                41.1820
 IR Inten    --      2.0746                43.5393                 8.5223

                     28                     29                     30
                      A                      A                      A
 Frequencies --   3007.6399              3051.6154              3108.8570
 Red. masses --      1.0708                 1.0827                 1.0956
 Frc consts  --      5.7071                 5.9404                 6.2387
 IR Inten    --     44.4402                15.1789                15.1011

                     31                     32                     33
                      A                      A                      A
 Frequencies --   3219.1605              3265.5158              3583.6397
 Red. masses --      1.0915                 1.1008                 1.0763
 Frc consts  --      6.6643                 6.9162                 8.1441
 IR Inten    --      4.5121                 3.0595                12.3099

 - Thermochemistry -
 -------------------
 Temperature   298.150 Kelvin.  Pressure   1.00000 Atm.
 Atom     1 has atomic number  7 and mass  14.00307

 Molecular mass:    94.05310 amu.
 Principal axes and moments of inertia in atomic units:
                           1         2         3
     Eigenvalues --   318.99122 847.31468 964.81540
           X            0.99986   0.00413   0.01647
           Y           -0.00362   0.99953  -0.03054
           Z           -0.01659   0.03047   0.99940
 This molecule is an asymmetric top.
 Rotational symmetry number  1.
 Rotational temperatures (Kelvin)      0.27152     0.10222     0.08977
 Rotational constants (GHZ):           5.65765     2.12995     1.87056
 Zero-point vibrational energy     273808.7 (Joules/Mol)
                                   65.44186 (Kcal/Mol)
 Warning -- explicit consideration of   7 degrees of freedom as
           vibrations may cause significant error
 Vibrational temperatures:    144.24   254.47   373.57   633.64   716.78
          (Kelvin)            844.51   855.81  1032.49  1149.09  1159.85
                             1212.91  1343.38  1370.76  1413.47  1494.68
                             1556.05  1611.95  1663.66  1755.02  1781.74
                             1874.34  1923.49  1964.40  2090.50  2173.29
                             2409.40  3382.84  4327.32  4390.59  4472.95
                             4631.65  4698.35  5156.06

 Zero-point correction=                           0.104288 (Hartree/Particle)
 Thermal correction to Energy=                    0.110387
 Thermal correction to Enthalpy=                  0.111331
 Thermal correction to Gibbs Free Energy=         0.074211
 Sum of electronic and zero-point Energies=           -303.511978
 Sum of electronic and thermal Energies=              -303.505880
 Sum of electronic and thermal Enthalpies=            -303.504935
 Sum of electronic and thermal Free Energies=         -303.542055

                     E (Thermal)             CV                S
                      KCal/Mol        Cal/Mol-Kelvin    Cal/Mol-Kelvin
 Total                   69.269             22.328             78.125
 Electronic               0.000              0.000              0.000
 Translational            0.889              2.981             39.535
 Rotational               0.889              2.981             27.058
 Vibrational             67.491             16.366             11.531
 Vibration     1          0.604              1.949              3.449
 Vibration     2          0.628              1.871              2.361
 Vibration     3          0.668              1.746              1.664
 Vibration     4          0.800              1.382              0.825
 Vibration     5          0.854              1.254              0.663
 Vibration     6          0.944              1.060              0.473
 Vibration     7          0.953              1.043              0.459

 Optimization completed.
    -- Stationary point found.
 Normal termination of Gaussian 16 at Tue Jun  1 14:53:06 2021.
