 Gaussian 16, Revision A.03,
 Gaussian 16:  ES64L-G16RevA.03 25-Dec-2016

 -----------------------------
 # opt freq b3lyp/6-31g(2df,p)
 -----------------------------

 -------------------
 Title Card Required
 -------------------
 Symbolic Z-matrix:
 Charge =  0 Multiplicity = 1

 SCF Done:  E(RB3LYP) =  -415.462712875     A.U. after   14 cycles
 SCF Done:  E(RB3LYP) =  -415.493204321     A.U. after   12 cycles
 SCF Done:  E(RB3LYP) =  -415.495317687     A.U. after   11 cycles
 SCF Done:  E(RB3LYP) =  -415.491641141     A.U. after   14 cycles
 SCF Done:  E(RB3LYP) =  -415.495665157     A.U. after   11 cycles
 SCF Done:  E(RB3LYP) =  -415.492102693     A.U. after   14 cycles
 SCF Done:  E(RB3LYP) =  -415.496105736     A.U. after   11 cycles
 SCF Done:  E(RB3LYP) =  -415.496167841     A.U. after    9 cycles
 SCF Done:  E(RB3LYP) =  -415.496172952     A.U. after    8 cycles
 SCF Done:  E(RB3LYP) =  -415.496173819     A.U. after    7 cycles
 SCF Done:  E(RB3LYP) =  -415.496173946     A.U. after    7 cycles
 Optimization completed.
    -- Stationary point found.
 Normal termination of Gaussian 16 at Mon May 31 19:11:16 2021.

 ----------------------------------------------------------------------
 #N Geom=AllCheck Guess=TCheck SCRF=Check GenChk RB3LYP/6-31G(2df,p) Fr
 eq
 ----------------------------------------------------------------------

 Structure from the checkpoint file:  "NtCCNCN1CNC1.chk"
 -------------------
 Title Card Required
 -------------------
 Charge =  0 Multiplicity = 1

                         Standard orientation:
 ---------------------------------------------------------------------
 Center     Atomic      Atomic             Coordinates (Angstroms)
 Number     Number       Type             X           Y           Z
 ---------------------------------------------------------------------
      1          7           0        4.272337    0.795763   -0.235264
      2          6           0        3.340264    0.166306    0.026812
      3          6           0        2.165798   -0.652476    0.340373
      4          7           0        0.946832   -0.036714   -0.162635
      5          6           0       -0.250100   -0.806850    0.139891
      6          7           0       -1.381774   -0.121250   -0.418040
      7          6           0       -2.722457   -0.703719   -0.229779
      8          7           0       -3.259119    0.656984   -0.000596
      9          6           0       -1.867274    1.105714    0.242516
     10          1           0        2.091709   -0.742167    1.431676
     11          1           0        2.353252   -1.672934   -0.042464
     12          1           0        1.001882    0.104177   -1.166632
     13          1           0       -0.304357   -0.912387    1.243580
     14          1           0       -0.236900   -1.830841   -0.279717
     15          1           0       -2.788735   -1.374186    0.648168
     16          1           0       -3.131364   -1.221417   -1.105977
     17          1           0       -3.860074    0.727611    0.812178
     18          1           0       -1.579003    1.162150    1.308606
     19          1           0       -1.591729    2.042660   -0.252543
 ---------------------------------------------------------------------

 SCF Done:  E(RB3LYP) =  -415.496173946     A.U. after    1 cycles

 The electronic state is 1-A.
 Alpha  occ. eigenvalues --  -14.34209 -14.33262 -14.33201 -14.32378 -10.26510
 Alpha  occ. eigenvalues --  -10.25028 -10.24375 -10.23909 -10.22353  -0.99611
 Alpha  occ. eigenvalues --   -0.93926  -0.90061  -0.83715  -0.74318  -0.69733
 Alpha  occ. eigenvalues --   -0.66341  -0.58246  -0.54967  -0.51441  -0.50459
 Alpha  occ. eigenvalues --   -0.49727  -0.48064  -0.44718  -0.41397  -0.41094
 Alpha  occ. eigenvalues --   -0.40557  -0.38955  -0.35921  -0.35452  -0.33397
 Alpha  occ. eigenvalues --   -0.32879  -0.25534  -0.24598  -0.23228
 Alpha virt. eigenvalues --    0.02141   0.03798   0.06943   0.07451   0.08405
 Alpha virt. eigenvalues --    0.10817   0.13047   0.13189   0.14006   0.15985
 Alpha virt. eigenvalues --    0.16354   0.17461   0.17638   0.18355   0.19204

 Mulliken charges:
               1
     1  N   -0.295768
     2  C    0.259271
     3  C   -0.260982
     4  N   -0.295077
     5  C   -0.087612
     6  N   -0.081463
     7  C   -0.124069
     8  N   -0.314597
     9  C   -0.115860
    10  H    0.157769
    11  H    0.133096
    12  H    0.237105
    13  H    0.080227
    14  H    0.090317
    15  H    0.079207
    16  H    0.112489
    17  H    0.225505
    18  H    0.081988
    19  H    0.118453
 Sum of Mulliken charges =  -0.00000

 Dipole moment (field-independent basis, Debye):
    X=             -3.0723    Y=             -3.0731    Z=              1.9534  Tot=              4.7643
 Quadrupole moment (field-independent basis, Debye-Ang):
   XX=            -72.2372   YY=            -53.5128   ZZ=            -52.1075
   XY=             -5.9266   XZ=             -3.0061   YZ=              1.3108

  Exact polarizability: 101.165   6.655  72.857  -1.777  -0.730  61.855
 Approx polarizability: 125.833  14.470 109.719  -4.551  -3.722  96.877

                      1                      2                      3
                      A                      A                      A
 Frequencies --     43.4259                86.3911                89.8790
 Red. masses --      4.3502                 4.2745                 3.1449
 Frc consts  --      0.0048                 0.0188                 0.0150
 IR Inten    --      2.0835                 3.6442                 3.4296

                      4                      5                      6
                      A                      A                      A
 Frequencies --    137.6941               171.7211               231.1999
 Red. masses --      2.7485                 3.1212                 2.8829
 Frc consts  --      0.0307                 0.0542                 0.0908
 IR Inten    --      2.7022                 3.3021                 1.9681

                      7                      8                      9
                      A                      A                      A
 Frequencies --    313.1425               378.9278               392.3364
 Red. masses --      3.7014                 2.7893                 3.8096
 Frc consts  --      0.2138                 0.2360                 0.3455
 IR Inten    --      3.1882                 7.7074                 1.1249

                     10                     11                     12
                      A                      A                      A
 Frequencies --    401.7184               584.5038               714.0868
 Red. masses --      3.5461                 5.9313                 2.2601
 Frc consts  --      0.3372                 1.1939                 0.6790
 IR Inten    --      7.4651                 0.4551                78.5575

                     13                     14                     15
                      A                      A                      A
 Frequencies --    788.2255               799.8230               950.0428
 Red. masses --      2.4712                 1.2623                 3.7720
 Frc consts  --      0.9046                 0.4758                 2.0059
 IR Inten    --     43.8082                84.1282                 4.0913

                     16                     17                     18
                      A                      A                      A
 Frequencies --    981.3519               988.9124               995.4319
 Red. masses --      1.6092                 1.8710                 1.8444
 Frc consts  --      0.9131                 1.0781                 1.0768
 IR Inten    --     14.3016                 1.4332                 8.2316

                     19                     20                     21
                      A                      A                      A
 Frequencies --   1016.0803              1031.4510              1069.4586
 Red. masses --      3.3257                 3.8673                 1.9293
 Frc consts  --      2.0230                 2.4241                 1.3001
 IR Inten    --      2.3410                10.2295                16.8043

                     22                     23                     24
                      A                      A                      A
 Frequencies --   1113.5765              1118.7828              1138.2168
 Red. masses --      1.7221                 1.1400                 2.3452
 Frc consts  --      1.2582                 0.8407                 1.7901
 IR Inten    --      4.9184                 1.3048                27.7702

                     25                     26                     27
                      A                      A                      A
 Frequencies --   1155.2347              1164.9974              1168.4953
 Red. masses --      2.9569                 1.3389                 1.7175
 Frc consts  --      2.3250                 1.0707                 1.3816
 IR Inten    --     55.9384                 8.5487                21.2637

                     28                     29                     30
                      A                      A                      A
 Frequencies --   1240.9374              1278.1509              1291.7440
 Red. masses --      1.3045                 3.1296                 1.2759
 Frc consts  --      1.1835                 3.0124                 1.2544
 IR Inten    --     10.8837                58.1490                 7.4249

                     31                     32                     33
                      A                      A                      A
 Frequencies --   1315.8574              1355.7943              1370.1172
 Red. masses --      1.2609                 1.2866                 1.3307
 Frc consts  --      1.2863                 1.3934                 1.4718
 IR Inten    --      5.6436                40.9034                38.7062

                     34                     35                     36
                      A                      A                      A
 Frequencies --   1399.4719              1435.4415              1482.9332
 Red. masses --      1.5374                 1.3927                 1.2339
 Frc consts  --      1.7740                 1.6907                 1.5988
 IR Inten    --     35.9632                 3.4751                78.0992

                     37                     38                     39
                      A                      A                      A
 Frequencies --   1491.6181              1520.1254              1527.7322
 Red. masses --      1.1027                 1.0814                 1.0831
 Frc consts  --      1.4455                 1.4724                 1.4894
 IR Inten    --      3.7578                 1.6593                 5.5089

                     40                     41                     42
                      A                      A                      A
 Frequencies --   1554.4291              2369.9327              2881.9882
 Red. masses --      1.1178                12.6223                 1.0652
 Frc consts  --      1.5914                41.7697                 5.2125
 IR Inten    --      4.0001                 3.8466                47.2612

                     43                     44                     45
                      A                      A                      A
 Frequencies --   2912.4132              2926.5461              2929.5695
 Red. masses --      1.0717                 1.0891                 1.0720
 Frc consts  --      5.3557                 5.4960                 5.4205
 IR Inten    --     72.1522                98.5913                98.1299

                     46                     47                     48
                      A                      A                      A
 Frequencies --   2934.1181              3036.4216              3045.1613
 Red. masses --      1.0724                 1.0912                 1.0843
 Frc consts  --      5.4395                 5.9276                 5.9243
 IR Inten    --     54.3156                66.1899                 7.8352

                     49                     50                     51
                      A                      A                      A
 Frequencies --   3059.4277              3526.7021              3546.1991
 Red. masses --      1.0926                 1.0741                 1.0760
 Frc consts  --      6.0256                 7.8707                 7.9727
 IR Inten    --     44.3631                 4.6455                 1.3113

 - Thermochemistry -
 -------------------
 Temperature   298.150 Kelvin.  Pressure   1.00000 Atm.
 Atom     1 has atomic number  7 and mass  14.00307

 Molecular mass:   126.09055 amu.
 Principal axes and moments of inertia in atomic units:
                           1         2         3
     Eigenvalues --   291.657392962.238493141.80045
           X            0.99998  -0.00620  -0.00238
           Y            0.00621   0.99997   0.00505
           Z            0.00235  -0.00506   0.99998
 This molecule is an asymmetric top.
 Rotational symmetry number  1.
 Rotational temperatures (Kelvin)      0.29697     0.02924     0.02757
 Rotational constants (GHZ):           6.18788     0.60925     0.57443
 Zero-point vibrational energy     421432.1 (Joules/Mol)
                                  100.72468 (Kcal/Mol)
 Warning -- explicit consideration of  11 degrees of freedom as
           vibrations may cause significant error
 Vibrational temperatures:     62.48   124.30   129.32   198.11   247.07
          (Kelvin)            332.65   450.54   545.19   564.48   577.98
                              840.97  1027.41  1134.08  1150.77  1366.90
                             1411.95  1422.82  1432.20  1461.91  1484.03
                             1538.71  1602.19  1609.68  1637.64  1662.13
                             1676.17  1681.20  1785.43  1838.97  1858.53
                             1893.23  1950.69  1971.29  2013.53  2065.28
                             2133.61  2146.11  2187.12  2198.07  2236.48
                             3409.80  4146.54  4190.31  4210.65  4215.00
                             4221.54  4368.73  4381.31  4401.83  5074.14
                             5102.19

 Zero-point correction=                           0.160515 (Hartree/Particle)
 Thermal correction to Energy=                    0.169777
 Thermal correction to Enthalpy=                  0.170721
 Thermal correction to Gibbs Free Energy=         0.125033
 Sum of electronic and zero-point Energies=           -415.335659
 Sum of electronic and thermal Energies=              -415.326397
 Sum of electronic and thermal Enthalpies=            -415.325453
 Sum of electronic and thermal Free Energies=         -415.371141

                     E (Thermal)             CV                S
                      KCal/Mol        Cal/Mol-Kelvin    Cal/Mol-Kelvin
 Total                  106.536             32.269             96.158
 Electronic               0.000              0.000              0.000
 Translational            0.889              2.981             40.409
 Rotational               0.889              2.981             29.386
 Vibrational            104.759             26.308             26.363
 Vibration     1          0.595              1.980              5.096
 Vibration     2          0.601              1.959              3.740
 Vibration     3          0.602              1.956              3.663
 Vibration     4          0.614              1.916              2.836
 Vibration     5          0.626              1.877              2.417
 Vibration     6          0.653              1.793              1.870
 Vibration     7          0.701              1.649              1.346
 Vibration     8          0.749              1.515              1.043
 Vibration     9          0.760              1.487              0.991
 Vibration    10          0.767              1.466              0.956
 Vibration    11          0.941              1.065              0.477

                           ! Non-Optimized Parameters !
 Normal termination of Gaussian 16 at Mon May 31 19:34:19 2021.
