 Gaussian 16, Revision A.03,
 Gaussian 16:  ES64L-G16RevA.03 25-Dec-2016

 -----------------------------
 # opt freq b3lyp/6-31g(2df,p)
 -----------------------------

 -------------------
 Title Card Required
 -------------------
 Symbolic Z-matrix:
 Charge =  0 Multiplicity = 1

 SCF Done:  E(RB3LYP) =  -374.922568921     A.U. after   14 cycles
 SCF Done:  E(RB3LYP) =  -374.939297890     A.U. after   12 cycles
 SCF Done:  E(RB3LYP) =  -374.944300312     A.U. after   12 cycles
 SCF Done:  E(RB3LYP) =  -374.945456995     A.U. after   12 cycles
 SCF Done:  E(RB3LYP) =  -374.944947850     A.U. after   14 cycles
 SCF Done:  E(RB3LYP) =  -374.946220021     A.U. after   11 cycles
 SCF Done:  E(RB3LYP) =  -374.946124697     A.U. after   12 cycles
 SCF Done:  E(RB3LYP) =  -374.946301734     A.U. after   12 cycles
 SCF Done:  E(RB3LYP) =  -374.946314852     A.U. after    9 cycles
 SCF Done:  E(RB3LYP) =  -374.946316447     A.U. after    8 cycles
 Optimization completed.
    -- Stationary point found.
 Normal termination of Gaussian 16 at Tue Jun  1 15:04:34 2021.

 ----------------------------------------------------------------------
 #N Geom=AllCheck Guess=TCheck SCRF=Check GenChk RB3LYP/6-31G(2df,p) Fr
 eq
 ----------------------------------------------------------------------

 Structure from the checkpoint file:  "NtCC1C2NCNN12.chk"
 -------------------
 Title Card Required
 -------------------
 Charge =  0 Multiplicity = 1

                         Standard orientation:
 ---------------------------------------------------------------------
 Center     Atomic      Atomic             Coordinates (Angstroms)
 Number     Number       Type             X           Y           Z
 ---------------------------------------------------------------------
      1          7           0       -2.369423   -1.026239    0.112266
      2          6           0       -1.701558   -0.082136    0.045682
      3          6           0       -0.828802    1.046760   -0.065452
      4          6           0        0.500017    1.003310    0.631989
      5          7           0        0.953332   -0.238858    1.194141
      6          6           0        1.518576   -0.954533    0.033742
      7          7           0        0.850833   -0.443287   -1.174926
      8          7           0        0.468566    0.922123   -0.846768
      9          1           0       -1.321036    1.999925   -0.230675
     10          1           0        0.901804    1.923593    1.046072
     11          1           0        0.179295   -0.762604    1.590659
     12          1           0        1.395709   -2.035871    0.125062
     13          1           0        2.586026   -0.721813   -0.036551
     14          1           0        0.005646   -0.979799   -1.363320
 ---------------------------------------------------------------------

 SCF Done:  E(RB3LYP) =  -374.946316447     A.U. after    1 cycles

 The electronic state is 1-A.
 Alpha  occ. eigenvalues --  -14.39051 -14.36207 -14.35225 -14.34679 -10.27415
 Alpha  occ. eigenvalues --  -10.27242 -10.25256 -10.24283  -1.05181  -0.92370
 Alpha  occ. eigenvalues --   -0.90262  -0.87774  -0.72250  -0.66736  -0.63049
 Alpha  occ. eigenvalues --   -0.57514  -0.53781  -0.49184  -0.48963  -0.44542
 Alpha  occ. eigenvalues --   -0.42101  -0.41284  -0.38452  -0.37189  -0.35440
 Alpha  occ. eigenvalues --   -0.34084  -0.31149  -0.27646  -0.23184
 Alpha virt. eigenvalues --   -0.01222   0.00739   0.06802   0.09176   0.09536
 Alpha virt. eigenvalues --    0.11624   0.12374   0.12887   0.14870   0.16688
 Alpha virt. eigenvalues --    0.18480   0.20489   0.21356   0.28114   0.28492

 Mulliken charges:
               1
     1  N   -0.341072
     2  C    0.300506
     3  C   -0.172538
     4  C    0.004635
     5  N   -0.313034
     6  C   -0.125533
     7  N   -0.279073
     8  N   -0.104573
     9  H    0.146619
    10  H    0.126980
    11  H    0.245902
    12  H    0.130912
    13  H    0.136420
    14  H    0.243849
 Sum of Mulliken charges =   0.00000

 Dipole moment (field-independent basis, Debye):
    X=              0.7137    Y=              0.9490    Z=              1.1956  Tot=              1.6851
 Quadrupole moment (field-independent basis, Debye-Ang):
   XX=            -52.5502   YY=            -43.0511   ZZ=            -49.9707
   XY=             -6.4816   XZ=              1.6644   YZ=              2.0206

  Exact polarizability:  71.560   2.920  63.953   0.236   0.936  48.458
 Approx polarizability: 110.384  15.243 106.467  -2.450  -0.297  79.862

                      1                      2                      3
                      A                      A                      A
 Frequencies --    119.2634               153.8692               214.2815
 Red. masses --      4.0982                 5.5611                 2.7060
 Frc consts  --      0.0343                 0.0776                 0.0732
 IR Inten    --      6.7521                12.1096                 4.2368

                      4                      5                      6
                      A                      A                      A
 Frequencies --    335.7223               409.0145               588.3287
 Red. masses --      4.5529                 5.8666                 4.7050
 Frc consts  --      0.3023                 0.5782                 0.9595
 IR Inten    --      1.6975                 0.5458                 3.1112

                      7                      8                      9
                      A                      A                      A
 Frequencies --    635.5969               691.4546               715.8615
 Red. masses --      6.4249                 4.3896                 3.0938
 Frc consts  --      1.5293                 1.2365                 0.9341
 IR Inten    --      3.6781                23.2505                18.5449

                     10                     11                     12
                      A                      A                      A
 Frequencies --    744.4055               789.4216               829.7015
 Red. masses --      5.0513                 3.4475                 3.7100
 Frc consts  --      1.6492                 1.2658                 1.5048
 IR Inten    --     20.9161                26.7835                25.4734

                     13                     14                     15
                      A                      A                      A
 Frequencies --    847.4850               927.1669               951.4714
 Red. masses --      2.0108                 3.3941                 1.4319
 Frc consts  --      0.8509                 1.7191                 0.7638
 IR Inten    --    127.1222                 0.6921                17.3285

                     16                     17                     18
                      A                      A                      A
 Frequencies --    992.5593              1014.1870              1033.2655
 Red. masses --      2.2987                 2.0610                 3.0751
 Frc consts  --      1.3343                 1.2490                 1.9343
 IR Inten    --      1.6099                 7.4063                21.4464

                     19                     20                     21
                      A                      A                      A
 Frequencies --   1123.5823              1143.9270              1188.9303
 Red. masses --      1.3998                 2.4836                 1.8956
 Frc consts  --      1.0412                 1.9148                 1.5787
 IR Inten    --      9.5298                43.6769                27.5170

                     22                     23                     24
                      A                      A                      A
 Frequencies --   1220.6696              1277.3441              1311.4301
 Red. masses --      2.1920                 1.3377                 1.3039
 Frc consts  --      1.9244                 1.2859                 1.3212
 IR Inten    --      5.4249                 4.1305                 4.9215

                     25                     26                     27
                      A                      A                      A
 Frequencies --   1355.5657              1377.2057              1436.4923
 Red. masses --      1.7351                 1.3490                 1.1315
 Frc consts  --      1.8785                 1.5075                 1.3756
 IR Inten    --      2.3679                 4.9324                 6.2143

                     28                     29                     30
                      A                      A                      A
 Frequencies --   1463.2889              1511.2738              2338.1449
 Red. masses --      1.1401                 1.0915                12.5686
 Frc consts  --      1.4383                 1.4688                40.4835
 IR Inten    --      8.4215                 0.0870                25.5892

                     31                     32                     33
                      A                      A                      A
 Frequencies --   3054.1541              3119.5336              3152.4857
 Red. masses --      1.0633                 1.1052                 1.0901
 Frc consts  --      5.8437                 6.3368                 6.3827
 IR Inten    --     48.9566                11.7332                13.6569

                     34                     35                     36
                      A                      A                      A
 Frequencies --   3168.6531              3470.9726              3520.3246
 Red. masses --      1.0887                 1.0752                 1.0746
 Frc consts  --      6.4402                 7.6322                 7.8461
 IR Inten    --      2.9490                 4.2230                 6.1634

 - Thermochemistry -
 -------------------
 Temperature   298.150 Kelvin.  Pressure   1.00000 Atm.
 Atom     1 has atomic number  7 and mass  14.00307

 Molecular mass:   110.05925 amu.
 Principal axes and moments of inertia in atomic units:
                           1         2         3
     Eigenvalues --   500.38013 891.33071 964.09365
           X            0.99853  -0.05337   0.00962
           Y            0.05262   0.99639   0.06663
           Z           -0.01315  -0.06603   0.99773
 This molecule is an asymmetric top.
 Rotational symmetry number  1.
 Warning -- assumption of classical behavior for rotation
           may cause significant error
 Rotational temperatures (Kelvin)      0.17310     0.09717     0.08984
 Rotational constants (GHZ):           3.60674     2.02477     1.87196
 Zero-point vibrational energy     288461.7 (Joules/Mol)
                                   68.94401 (Kcal/Mol)
 Warning -- explicit consideration of   6 degrees of freedom as
           vibrations may cause significant error
 Vibrational temperatures:    171.59   221.38   308.30   483.03   588.48
          (Kelvin)            846.47   914.48   994.85  1029.97  1071.03
                             1135.80  1193.76  1219.34  1333.99  1368.96
                             1428.07  1459.19  1486.64  1616.58  1645.86
                             1710.61  1756.27  1837.81  1886.86  1950.36
                             1981.49  2066.79  2105.35  2174.39  3364.07
                             4394.25  4488.31  4535.72  4558.99  4993.96
                             5064.96

 Zero-point correction=                           0.109869 (Hartree/Particle)
 Thermal correction to Energy=                    0.116430
 Thermal correction to Enthalpy=                  0.117374
 Thermal correction to Gibbs Free Energy=         0.079081
 Sum of electronic and zero-point Energies=           -374.836447
 Sum of electronic and thermal Energies=              -374.829887
 Sum of electronic and thermal Enthalpies=            -374.828943
 Sum of electronic and thermal Free Energies=         -374.867236

                     E (Thermal)             CV                S
                      KCal/Mol        Cal/Mol-Kelvin    Cal/Mol-Kelvin
 Total                   73.061             24.609             80.595
 Electronic               0.000              0.000              0.000
 Translational            0.889              2.981             40.004
 Rotational               0.889              2.981             27.555
 Vibrational             71.283             18.648             13.036
 Vibration     1          0.609              1.933              3.112
 Vibration     2          0.619              1.898              2.624
 Vibration     3          0.644              1.819              2.007
 Vibration     4          0.717              1.604              1.232
 Vibration     5          0.773              1.451              0.930
 Vibration     6          0.946              1.057              0.470

 Optimization completed.
    -- Stationary point found.
 Normal termination of Gaussian 16 at Tue Jun  1 15:22:11 2021.
