 Gaussian 16, Revision A.03,
 Gaussian 16:  ES64L-G16RevA.03 25-Dec-2016

 -----------------------------
 # opt freq b3lyp/6-31g(2df,p)
 -----------------------------

 -------------------
 Title Card Required
 -------------------
 Symbolic Z-matrix:
 Charge =  0 Multiplicity = 1

 SCF Done:  E(RB3LYP) =  -398.182746857     A.U. after   15 cycles
 SCF Done:  E(RB3LYP) =  -398.217279368     A.U. after   12 cycles
 SCF Done:  E(RB3LYP) =  -398.219735404     A.U. after   12 cycles
 SCF Done:  E(RB3LYP) =  -398.208183313     A.U. after   15 cycles
 SCF Done:  E(RB3LYP) =  -398.220587286     A.U. after   12 cycles
 SCF Done:  E(RB3LYP) =  -398.219141384     A.U. after   13 cycles
 SCF Done:  E(RB3LYP) =  -398.220408025     A.U. after   12 cycles
 SCF Done:  E(RB3LYP) =  -398.220772679     A.U. after    9 cycles
 SCF Done:  E(RB3LYP) =  -398.220962886     A.U. after   11 cycles
 SCF Done:  E(RB3LYP) =  -398.221430781     A.U. after   12 cycles
 SCF Done:  E(RB3LYP) =  -398.232263204     A.U. after   12 cycles
 SCF Done:  E(RB3LYP) =  -398.232804394     A.U. after   11 cycles
 SCF Done:  E(RB3LYP) =  -398.233062160     A.U. after   11 cycles
 SCF Done:  E(RB3LYP) =  -398.233084504     A.U. after   11 cycles
 SCF Done:  E(RB3LYP) =  -398.233091766     A.U. after    9 cycles
 SCF Done:  E(RB3LYP) =  -398.233094802     A.U. after    9 cycles
 SCF Done:  E(RB3LYP) =  -398.233095678     A.U. after    8 cycles
 SCF Done:  E(RB3LYP) =  -398.233096513     A.U. after    9 cycles
 SCF Done:  E(RB3LYP) =  -398.233096677     A.U. after    8 cycles
 Optimization completed.
    -- Stationary point found.
 Normal termination of Gaussian 16 at Tue Jun  1 11:46:42 2021.

 ----------------------------------------------------------------------
 #N Geom=AllCheck Guess=TCheck SCRF=Check GenChk RB3LYP/6-31G(2df,p) Fr
 eq
 ----------------------------------------------------------------------

 Structure from the checkpoint file:  "NtCCNCC1CdCN1.chk"
 -------------------
 Title Card Required
 -------------------
 Charge =  0 Multiplicity = 1

                         Standard orientation:
 ---------------------------------------------------------------------
 Center     Atomic      Atomic             Coordinates (Angstroms)
 Number     Number       Type             X           Y           Z
 ---------------------------------------------------------------------
      1          7           0       -3.700513   -0.805530    0.371846
      2          6           0       -2.729032   -0.343832   -0.049727
      3          6           0       -1.482424    0.208127   -0.588880
      4          7           0       -0.719798    0.879346    0.464511
      5          6           0        0.520392    1.502689    0.015738
      6          6           0        1.745752    0.595664   -0.134455
      7          6           0        2.120889   -0.344992    1.001334
      8          6           0        2.010640   -1.385713    0.162553
      9          7           0        1.538954   -0.654685   -0.971348
     10          1           0       -1.745162    0.951557   -1.352517
     11          1           0       -0.934978   -0.596974   -1.099932
     12          1           0       -0.527571    0.223425    1.214607
     13          1           0        0.791348    2.289015    0.734007
     14          1           0        0.322739    2.011093   -0.935899
     15          1           0        2.591832    1.187454   -0.505368
     16          1           0        2.288289   -0.218976    2.059472
     17          1           0        2.153805   -2.458870    0.202692
     18          1           0        2.111890   -0.713289   -1.811508
 ---------------------------------------------------------------------

 SCF Done:  E(RB3LYP) =  -398.233096677     A.U. after    1 cycles

 The electronic state is 1-A.
 Alpha  occ. eigenvalues --  -14.34355 -14.32944 -14.31985 -10.24535 -10.23363
 Alpha  occ. eigenvalues --  -10.22574 -10.22204 -10.21144 -10.18541  -0.96303
 Alpha  occ. eigenvalues --   -0.92026  -0.88728  -0.76225  -0.72838  -0.69725
 Alpha  occ. eigenvalues --   -0.62314  -0.54632  -0.54165  -0.52120  -0.49252
 Alpha  occ. eigenvalues --   -0.46455  -0.44709  -0.43881  -0.41465  -0.40011
 Alpha  occ. eigenvalues --   -0.37316  -0.34880  -0.34077  -0.32220  -0.31725
 Alpha  occ. eigenvalues --   -0.31269  -0.23714  -0.22634
 Alpha virt. eigenvalues --    0.00903   0.03361   0.05114   0.07529   0.10712
 Alpha virt. eigenvalues --    0.11187   0.11876   0.12693   0.14359   0.14711
 Alpha virt. eigenvalues --    0.16145   0.16494   0.17762   0.19099   0.20245

 Mulliken charges:
               1
     1  N   -0.306281
     2  C    0.256330
     3  C   -0.265917
     4  N   -0.291109
     5  C   -0.179347
     6  C    0.018311
     7  C   -0.201423
     8  C   -0.012031
     9  N   -0.329872
    10  H    0.146005
    11  H    0.155697
    12  H    0.231526
    13  H    0.112089
    14  H    0.107271
    15  H    0.091883
    16  H    0.113053
    17  H    0.126131
    18  H    0.227683
 Sum of Mulliken charges =  -0.00000

 Dipole moment (field-independent basis, Debye):
    X=              5.4172    Y=              0.8515    Z=             -1.6861  Tot=              5.7370
 Quadrupole moment (field-independent basis, Debye-Ang):
   XX=            -68.4964   YY=            -51.8484   ZZ=            -49.2962
   XY=             -4.6099   XZ=              2.7260   YZ=             -0.6188

  Exact polarizability:  85.676   4.386  76.284  -0.341  -0.102  70.907
 Approx polarizability: 115.994  11.950 118.567  -2.935   4.341 118.889

                      1                      2                      3
                      A                      A                      A
 Frequencies --     40.4752                70.2017               128.8331
 Red. masses --      5.0332                 3.0755                 3.2439
 Frc consts  --      0.0049                 0.0089                 0.0317
 IR Inten    --      3.3106                 1.5456                 6.4442

                      4                      5                      6
                      A                      A                      A
 Frequencies --    165.6196               190.1630               297.4361
 Red. masses --      4.1424                 4.1899                 3.9517
 Frc consts  --      0.0669                 0.0893                 0.2060
 IR Inten    --      1.9159                 2.0055                 1.0788

                      7                      8                      9
                      A                      A                      A
 Frequencies --    336.1477               392.4060               421.6749
 Red. masses --      2.2430                 3.7564                 2.6543
 Frc consts  --      0.1493                 0.3408                 0.2781
 IR Inten    --     15.3209                 2.0201                 1.9732

                     10                     11                     12
                      A                      A                      A
 Frequencies --    544.7249               639.4948               684.1306
 Red. masses --      6.1078                 1.8589                 1.4626
 Frc consts  --      1.0678                 0.4479                 0.4033
 IR Inten    --     14.5842                38.7794               106.6054

                     13                     14                     15
                      A                      A                      A
 Frequencies --    760.7974               798.4635               825.4441
 Red. masses --      1.7888                 1.8142                 2.8079
 Frc consts  --      0.6100                 0.6815                 1.1272
 IR Inten    --    135.7677                 8.8284                 8.8266

                     16                     17                     18
                      A                      A                      A
 Frequencies --    887.8846               914.4686               935.9818
 Red. masses --      1.4875                 2.5802                 2.6844
 Frc consts  --      0.6909                 1.2713                 1.3856
 IR Inten    --     10.5734                17.0716                13.9839

                     19                     20                     21
                      A                      A                      A
 Frequencies --    949.6977               988.6611              1005.8166
 Red. masses --      2.3141                 2.2943                 1.8804
 Frc consts  --      1.2297                 1.3213                 1.1208
 IR Inten    --     10.8083                14.6721                27.8492

                     22                     23                     24
                      A                      A                      A
 Frequencies --   1038.9370              1060.1162              1102.6358
 Red. masses --      2.1820                 1.4245                 1.8112
 Frc consts  --      1.3877                 0.9432                 1.2975
 IR Inten    --     11.8378                 3.4368                12.7582

                     25                     26                     27
                      A                      A                      A
 Frequencies --   1139.9766              1181.0792              1187.3605
 Red. masses --      2.2651                 2.0386                 1.5828
 Frc consts  --      1.7343                 1.6755                 1.3147
 IR Inten    --      8.0329                22.2648                 8.7107

                     28                     29                     30
                      A                      A                      A
 Frequencies --   1229.7169              1282.9046              1296.9654
 Red. masses --      1.1704                 1.3748                 1.3645
 Frc consts  --      1.0428                 1.3331                 1.3524
 IR Inten    --      3.0525                 6.5687                 6.2241

                     31                     32                     33
                      A                      A                      A
 Frequencies --   1320.9358              1352.3347              1371.7909
 Red. masses --      1.6151                 1.6388                 1.3176
 Frc consts  --      1.6604                 1.7658                 1.4609
 IR Inten    --      1.8961                10.5714                15.5139

                     34                     35                     36
                      A                      A                      A
 Frequencies --   1399.6019              1473.8851              1499.4511
 Red. masses --      1.3222                 1.0856                 1.0726
 Frc consts  --      1.5260                 1.3895                 1.4208
 IR Inten    --     11.6742                 3.9303                 7.8746

                     37                     38                     39
                      A                      A                      A
 Frequencies --   1506.4708              1620.6781              2364.9021
 Red. masses --      1.2281                 4.9445                12.6136
 Frc consts  --      1.6422                 7.6518                41.5638
 IR Inten    --     18.3398                 8.5891                 5.8860

                     40                     41                     42
                      A                      A                      A
 Frequencies --   3003.6367              3009.6416              3036.9176
 Red. masses --      1.0610                 1.0644                 1.0845
 Frc consts  --      5.6400                 5.6803                 5.8930
 IR Inten    --     33.6664                16.4352                50.1778

                     43                     44                     45
                      A                      A                      A
 Frequencies --   3046.1112              3059.2075              3204.8129
 Red. masses --      1.0969                 1.0984                 1.0915
 Frc consts  --      5.9966                 6.0569                 6.6053
 IR Inten    --      7.3247                24.0841                10.8884

                     46                     47                     48
                      A                      A                      A
 Frequencies --   3262.4059              3471.5789              3527.8327
 Red. masses --      1.1105                 1.0750                 1.0736
 Frc consts  --      6.9639                 7.6336                 7.8724
 IR Inten    --      3.8226                 1.1681                 3.6486

 - Thermochemistry -
 -------------------
 Temperature   298.150 Kelvin.  Pressure   1.00000 Atm.
 Atom     1 has atomic number  7 and mass  14.00307

 Molecular mass:   123.07965 amu.
 Principal axes and moments of inertia in atomic units:
                           1         2         3
     Eigenvalues --   539.614212016.894722208.43225
           X            0.99996  -0.00669   0.00639
           Y            0.00679   0.99985  -0.01611
           Z           -0.00628   0.01615   0.99985
 This molecule is an asymmetric top.
 Rotational symmetry number  1.
 Warning -- assumption of classical behavior for rotation
           may cause significant error
 Rotational temperatures (Kelvin)      0.16051     0.04294     0.03922
 Rotational constants (GHZ):           3.34450     0.89481     0.81720
 Zero-point vibrational energy     388968.2 (Joules/Mol)
                                   92.96564 (Kcal/Mol)
 Warning -- explicit consideration of  10 degrees of freedom as
           vibrations may cause significant error
 Vibrational temperatures:     58.23   101.00   185.36   238.29   273.60
          (Kelvin)            427.94   483.64   564.58   606.70   783.74
                              920.09   984.31  1094.62  1148.81  1187.63
                             1277.47  1315.72  1346.67  1366.40  1422.46
                             1447.15  1494.80  1525.27  1586.45  1640.17
                             1699.31  1708.35  1769.29  1845.81  1866.04
                             1900.53  1945.71  1973.70  2013.71  2120.59
                             2157.38  2167.48  2331.79  3402.57  4321.56
                             4330.20  4369.45  4382.67  4401.52  4611.01
                             4693.87  4994.83  5075.76

 Zero-point correction=                           0.148150 (Hartree/Particle)
 Thermal correction to Energy=                    0.157111
 Thermal correction to Enthalpy=                  0.158055
 Thermal correction to Gibbs Free Energy=         0.113210
 Sum of electronic and zero-point Energies=           -398.084946
 Sum of electronic and thermal Energies=              -398.075985
 Sum of electronic and thermal Enthalpies=            -398.075041
 Sum of electronic and thermal Free Energies=         -398.119887

                     E (Thermal)             CV                S
                      KCal/Mol        Cal/Mol-Kelvin    Cal/Mol-Kelvin
 Total                   98.589             32.221             94.385
 Electronic               0.000              0.000              0.000
 Translational            0.889              2.981             40.337
 Rotational               0.889              2.981             29.265
 Vibrational             96.811             26.259             24.783
 Vibration     1          0.594              1.981              5.236
 Vibration     2          0.598              1.968              4.148
 Vibration     3          0.611              1.924              2.963
 Vibration     4          0.624              1.885              2.485
 Vibration     5          0.633              1.853              2.226
 Vibration     6          0.691              1.679              1.431
 Vibration     7          0.717              1.603              1.230
 Vibration     8          0.760              1.486              0.991
 Vibration     9          0.784              1.423              0.886
 Vibration    10          0.900              1.151              0.555

                           ! Non-Optimized Parameters !
 Normal termination of Gaussian 16 at Tue Jun  1 12:12:41 2021.
