 Gaussian 16, Revision A.03,
 Gaussian 16:  ES64L-G16RevA.03 25-Dec-2016

 -----------------------------
 # opt freq b3lyp/6-31g(2df,p)
 -----------------------------

 -------------------
 Title Card Required
 -------------------
 Symbolic Z-matrix:
 Charge =  0 Multiplicity = 1

 SCF Done:  E(RB3LYP) =  -398.212209303     A.U. after   15 cycles
 SCF Done:  E(RB3LYP) =  -398.243359549     A.U. after   13 cycles
 SCF Done:  E(RB3LYP) =  -398.243199711     A.U. after   14 cycles
 SCF Done:  E(RB3LYP) =  -398.248005068     A.U. after   13 cycles
 SCF Done:  E(RB3LYP) =  -398.249807767     A.U. after   12 cycles
 SCF Done:  E(RB3LYP) =  -398.251778118     A.U. after   13 cycles
 SCF Done:  E(RB3LYP) =  -398.247044011     A.U. after   15 cycles
 SCF Done:  E(RB3LYP) =  -398.252938735     A.U. after   12 cycles
 SCF Done:  E(RB3LYP) =  -398.253758673     A.U. after   12 cycles
 SCF Done:  E(RB3LYP) =  -398.254709710     A.U. after   13 cycles
 SCF Done:  E(RB3LYP) =  -398.255233933     A.U. after   11 cycles
 SCF Done:  E(RB3LYP) =  -398.255607051     A.U. after   13 cycles
 SCF Done:  E(RB3LYP) =  -398.255656198     A.U. after   11 cycles
 SCF Done:  E(RB3LYP) =  -398.255670472     A.U. after   11 cycles
 SCF Done:  E(RB3LYP) =  -398.255675740     A.U. after   11 cycles
 SCF Done:  E(RB3LYP) =  -398.255676585     A.U. after    9 cycles
 SCF Done:  E(RB3LYP) =  -398.255676807     A.U. after    8 cycles
 Optimization completed.
    -- Stationary point found.
 Normal termination of Gaussian 16 at Tue Jun  1 03:48:32 2021.

 ----------------------------------------------------------------------
 #N Geom=AllCheck Guess=TCheck SCRF=Check GenChk RB3LYP/6-31G(2df,p) Fr
 eq
 ----------------------------------------------------------------------

 Structure from the checkpoint file:  "NtCCCCC1NC1dN.chk"
 -------------------
 Title Card Required
 -------------------
 Charge =  0 Multiplicity = 1

                         Standard orientation:
 ---------------------------------------------------------------------
 Center     Atomic      Atomic             Coordinates (Angstroms)
 Number     Number       Type             X           Y           Z
 ---------------------------------------------------------------------
      1          7           0        3.881619   -1.093976   -0.327298
      2          6           0        3.089982   -0.302378   -0.041426
      3          6           0        2.071876    0.686595    0.305958
      4          6           0        0.643814    0.198288   -0.007328
      5          6           0       -0.396428    1.275916    0.315604
      6          6           0       -1.845231    0.874630    0.098599
      7          7           0       -2.311872    0.114862   -1.136749
      8          6           0       -2.268014   -0.515960    0.100253
      9          7           0       -2.417422   -1.584348    0.745015
     10          1           0        2.288100    1.611842   -0.241507
     11          1           0        2.165740    0.924138    1.372027
     12          1           0        0.436085   -0.709671    0.566419
     13          1           0        0.597130   -0.077858   -1.066819
     14          1           0       -0.189764    2.179900   -0.273757
     15          1           0       -0.300449    1.571526    1.368757
     16          1           0       -2.558488    1.650057    0.371406
     17          1           0       -1.603516   -0.154377   -1.815186
     18          1           0       -2.677115   -2.353872    0.121928
 ---------------------------------------------------------------------

 SCF Done:  E(RB3LYP) =  -398.255676807     A.U. after    1 cycles

 The electronic state is 1-A.
 Alpha  occ. eigenvalues --  -14.35861 -14.33049 -14.32036 -10.26827 -10.24514
 Alpha  occ. eigenvalues --  -10.24486 -10.22387 -10.21972 -10.21829  -0.99910
 Alpha  occ. eigenvalues --   -0.90515  -0.88526  -0.83362  -0.76240  -0.68255
 Alpha  occ. eigenvalues --   -0.63689  -0.55995  -0.53388  -0.51303  -0.50768
 Alpha  occ. eigenvalues --   -0.49039  -0.44698  -0.42408  -0.41642  -0.38486
 Alpha  occ. eigenvalues --   -0.38062  -0.36049  -0.35122  -0.33538  -0.32707
 Alpha  occ. eigenvalues --   -0.32543  -0.28509  -0.25563
 Alpha virt. eigenvalues --    0.00164   0.02746   0.03547   0.06349   0.07708
 Alpha virt. eigenvalues --    0.09076   0.10033   0.12079   0.12313   0.14877
 Alpha virt. eigenvalues --    0.16014   0.16877   0.18232   0.18923   0.19842

 Mulliken charges:
               1
     1  N   -0.299868
     2  C    0.257712
     3  C   -0.342557
     4  C   -0.203813
     5  C   -0.224833
     6  C   -0.078512
     7  N   -0.367838
     8  C    0.368872
     9  N   -0.532306
    10  H    0.153082
    11  H    0.157656
    12  H    0.153503
    13  H    0.115162
    14  H    0.114872
    15  H    0.125899
    16  H    0.123023
    17  H    0.251504
    18  H    0.228442
 Sum of Mulliken charges =  -0.00000

 Dipole moment (field-independent basis, Debye):
    X=             -1.4455    Y=              3.3453    Z=             -0.6317  Tot=              3.6986
 Quadrupole moment (field-independent basis, Debye-Ang):
   XX=            -74.5123   YY=            -52.3006   ZZ=            -53.6631
   XY=              8.1573   XZ=              4.9900   YZ=              3.7850

  Exact polarizability:  86.253  -0.744  83.608  -2.233   0.372  65.205
 Approx polarizability: 109.280  -7.457 133.325  -4.608  -3.015 110.087

                      1                      2                      3
                      A                      A                      A
 Frequencies --     47.0334                75.4630                88.7583
 Red. masses --      3.4158                 3.4649                 3.7725
 Frc consts  --      0.0045                 0.0116                 0.0175
 IR Inten    --      6.8019                 0.6022                 4.2011

                      4                      5                      6
                      A                      A                      A
 Frequencies --    115.2931               182.9400               258.1434
 Red. masses --      3.0511                 3.7196                 3.6381
 Frc consts  --      0.0239                 0.0733                 0.1428
 IR Inten    --      4.6707                 4.2611                 0.3831

                      7                      8                      9
                      A                      A                      A
 Frequencies --    298.7706               398.2713               436.4667
 Red. masses --      4.3771                 3.4414                 2.9939
 Frc consts  --      0.2302                 0.3216                 0.3360
 IR Inten    --      0.5000                 0.6174                10.5290

                     10                     11                     12
                      A                      A                      A
 Frequencies --    473.2737               547.1090               618.3296
 Red. masses --      3.1916                 5.1585                 3.1089
 Frc consts  --      0.4212                 0.9098                 0.7003
 IR Inten    --      7.0675                 8.4985                32.3600

                     13                     14                     15
                      A                      A                      A
 Frequencies --    675.1416               737.4133               766.0999
 Red. masses --      2.2965                 1.2517                 2.0080
 Frc consts  --      0.6167                 0.4010                 0.6943
 IR Inten    --     96.3123                39.8093                23.5726

                     16                     17                     18
                      A                      A                      A
 Frequencies --    834.5185               867.8964               911.5292
 Red. masses --      1.8804                 1.9845                 1.5425
 Frc consts  --      0.7716                 0.8807                 0.7551
 IR Inten    --     21.6070                22.2650                74.9160

                     19                     20                     21
                      A                      A                      A
 Frequencies --    948.9849              1032.4978              1036.5893
 Red. masses --      4.0315                 3.0188                 2.2906
 Frc consts  --      2.1391                 1.8961                 1.4501
 IR Inten    --      1.9843                 1.2936                 3.2336

                     22                     23                     24
                      A                      A                      A
 Frequencies --   1050.2843              1068.2689              1120.3948
 Red. masses --      1.6086                 1.5731                 1.6698
 Frc consts  --      1.0455                 1.0577                 1.2350
 IR Inten    --      9.9961                24.6479                14.6441

                     25                     26                     27
                      A                      A                      A
 Frequencies --   1141.2435              1182.1890              1203.7934
 Red. masses --      1.5778                 1.6569                 1.3917
 Frc consts  --      1.2108                 1.3644                 1.1882
 IR Inten    --      4.3236                 4.6264                14.1037

                     28                     29                     30
                      A                      A                      A
 Frequencies --   1266.3288              1271.9442              1307.2681
 Red. masses --      1.3288                 1.6928                 1.2036
 Frc consts  --      1.2554                 1.6135                 1.2119
 IR Inten    --      0.8866                56.4476                 8.7423

                     31                     32                     33
                      A                      A                      A
 Frequencies --   1336.9870              1347.1929              1378.5609
 Red. masses --      1.0831                 1.6379                 1.4817
 Frc consts  --      1.1407                 1.7515                 1.6590
 IR Inten    --      0.7857                 4.9156                14.9203

                     34                     35                     36
                      A                      A                      A
 Frequencies --   1412.3503              1468.5217              1479.9337
 Red. masses --      1.4779                 1.0845                 1.0768
 Frc consts  --      1.7369                 1.3779                 1.3895
 IR Inten    --     10.2332                 1.8871                 0.9091

                     37                     38                     39
                      A                      A                      A
 Frequencies --   1503.8131              1890.8010              2364.6804
 Red. masses --      1.0929                 9.6751                12.6114
 Frc consts  --      1.4562                20.3796                41.5487
 IR Inten    --      3.8117               195.6332                 9.2526

                     40                     41                     42
                      A                      A                      A
 Frequencies --   3012.6221              3035.7144              3043.2473
 Red. masses --      1.0600                 1.0601                 1.0814
 Frc consts  --      5.6681                 5.7561                 5.9010
 IR Inten    --     22.3697                 0.4627                12.7765

                     43                     44                     45
                      A                      A                      A
 Frequencies --   3051.4913              3072.9556              3104.2492
 Red. masses --      1.0802                 1.0991                 1.1023
 Frc consts  --      5.9262                 6.1153                 6.2583
 IR Inten    --     23.8676                 1.1342                16.0553

                     46                     47                     48
                      A                      A                      A
 Frequencies --   3126.6479              3435.2427              3508.4639
 Red. masses --      1.0881                 1.0739                 1.0759
 Frc consts  --      6.2672                 7.4665                 7.8029
 IR Inten    --     16.9476                 0.1106                 7.5304

 - Thermochemistry -
 -------------------
 Temperature   298.150 Kelvin.  Pressure   1.00000 Atm.
 Atom     1 has atomic number  7 and mass  14.00307

 Molecular mass:   123.07965 amu.
 Principal axes and moments of inertia in atomic units:
                           1         2         3
     Eigenvalues --   533.485262532.028472789.21705
           X            0.99992   0.01166   0.00558
           Y           -0.01187   0.99920   0.03822
           Z           -0.00513  -0.03829   0.99925
 This molecule is an asymmetric top.
 Rotational symmetry number  1.
 Warning -- assumption of classical behavior for rotation
           may cause significant error
 Rotational temperatures (Kelvin)      0.16235     0.03421     0.03105
 Rotational constants (GHZ):           3.38293     0.71276     0.64704
 Zero-point vibrational energy     386009.3 (Joules/Mol)
                                   92.25843 (Kcal/Mol)
 Warning -- explicit consideration of  12 degrees of freedom as
           vibrations may cause significant error
 Vibrational temperatures:     67.67   108.57   127.70   165.88   263.21
          (Kelvin)            371.41   429.86   573.02   627.98   680.94
                              787.17   889.64   971.38  1060.97  1102.25
                             1200.69  1248.71  1311.49  1365.38  1485.53
                             1491.42  1511.12  1537.00  1612.00  1641.99
                             1700.91  1731.99  1821.96  1830.04  1880.87
                             1923.63  1938.31  1983.44  2032.06  2112.88
                             2129.29  2163.65  2720.44  3402.25  4334.49
                             4367.72  4378.55  4390.42  4421.30  4466.32
                             4498.55  4942.55  5047.90

 Zero-point correction=                           0.147023 (Hartree/Particle)
 Thermal correction to Energy=                    0.156425
 Thermal correction to Enthalpy=                  0.157369
 Thermal correction to Gibbs Free Energy=         0.111328
 Sum of electronic and zero-point Energies=           -398.108654
 Sum of electronic and thermal Energies=              -398.099252
 Sum of electronic and thermal Enthalpies=            -398.098308
 Sum of electronic and thermal Free Energies=         -398.144349

                     E (Thermal)             CV                S
                      KCal/Mol        Cal/Mol-Kelvin    Cal/Mol-Kelvin
 Total                   98.158             33.257             96.901
 Electronic               0.000              0.000              0.000
 Translational            0.889              2.981             40.337
 Rotational               0.889              2.981             29.712
 Vibrational             96.381             27.295             26.853
 Vibration     1          0.595              1.979              4.938
 Vibration     2          0.599              1.965              4.006
 Vibration     3          0.602              1.957              3.687
 Vibration     4          0.608              1.937              3.178
 Vibration     5          0.630              1.863              2.298
 Vibration     6          0.667              1.749              1.674
 Vibration     7          0.692              1.676              1.424
 Vibration     8          0.765              1.474              0.969
 Vibration     9          0.797              1.391              0.838
 Vibration    10          0.830              1.309              0.728
 Vibration    11          0.902              1.146              0.550
 Vibration    12          0.978              0.993              0.419

 Optimization completed.
    -- Stationary point found.
 Normal termination of Gaussian 16 at Tue Jun  1 04:13:44 2021.
