 Gaussian 16, Revision A.03,
 Gaussian 16:  ES64L-G16RevA.03 25-Dec-2016

 -----------------------------
 # opt freq b3lyp/6-31g(2df,p)
 -----------------------------

 -------------------
 Title Card Required
 -------------------
 Symbolic Z-matrix:
 Charge =  0 Multiplicity = 1

 SCF Done:  E(RB3LYP) =  -320.867933848     A.U. after   14 cycles
 SCF Done:  E(RB3LYP) =  -320.870897455     A.U. after   12 cycles
 SCF Done:  E(RB3LYP) =  -320.868828209     A.U. after   15 cycles
 SCF Done:  E(RB3LYP) =  -320.871760560     A.U. after   12 cycles
 SCF Done:  E(RB3LYP) =  -320.871789633     A.U. after   10 cycles
 SCF Done:  E(RB3LYP) =  -320.871808607     A.U. after   10 cycles
 SCF Done:  E(RB3LYP) =  -320.871816942     A.U. after    8 cycles
 SCF Done:  E(RB3LYP) =  -320.871819798     A.U. after    9 cycles
 SCF Done:  E(RB3LYP) =  -320.871820388     A.U. after    8 cycles
 SCF Done:  E(RB3LYP) =  -320.871820483     A.U. after    6 cycles
 Optimization completed.
    -- Stationary point found.
 Normal termination of Gaussian 16 at Mon May 31 12:05:24 2021.

 ----------------------------------------------------------------------
 #N Geom=AllCheck Guess=TCheck SCRF=Check GenChk RB3LYP/6-31G(2df,p) Fr
 eq
 ----------------------------------------------------------------------

 Structure from the checkpoint file:  "NtCCpdNpCCN.chk"
 -------------------
 Title Card Required
 -------------------
 Charge =  0 Multiplicity = 1

                         Standard orientation:
 ---------------------------------------------------------------------
 Center     Atomic      Atomic             Coordinates (Angstroms)
 Number     Number       Type             X           Y           Z
 ---------------------------------------------------------------------
      1          7           0       -3.037225   -0.952098   -0.001293
      2          6           0       -2.032651   -0.377786   -0.002920
      3          6           0       -0.778083    0.359475   -0.002044
      4          7           0       -0.742586    1.633062    0.015479
      5          6           0        0.470147   -0.483177   -0.029519
      6          6           0        1.769173    0.319998    0.023746
      7          7           0        2.907915   -0.595828   -0.089464
      8          1           0       -1.681652    2.035587    0.026346
      9          1           0        0.456625   -1.105416   -0.933748
     10          1           0        0.419074   -1.194875    0.807145
     11          1           0        1.770589    0.946294    0.929050
     12          1           0        1.795892    1.010254   -0.824741
     13          1           0        3.004530   -1.136955    0.765594
     14          1           0        3.766699   -0.061906   -0.178282
 ---------------------------------------------------------------------

 SCF Done:  E(RB3LYP) =  -320.871820483     A.U. after    1 cycles

 The electronic state is 1-A.
 Alpha  occ. eigenvalues --  -14.35263 -14.35233 -14.31723 -10.28636 -10.23663
 Alpha  occ. eigenvalues --  -10.21660 -10.21010  -0.95144  -0.91309  -0.88793
 Alpha  occ. eigenvalues --   -0.77574  -0.68370  -0.60458  -0.56290  -0.50065
 Alpha  occ. eigenvalues --   -0.48071  -0.44946  -0.41528  -0.40206  -0.38315
 Alpha  occ. eigenvalues --   -0.37828  -0.35892  -0.34798  -0.32240  -0.30006
 Alpha  occ. eigenvalues --   -0.24597
 Alpha virt. eigenvalues --   -0.06644   0.01804   0.07090   0.08089   0.08369
 Alpha virt. eigenvalues --    0.11774   0.13451   0.15113   0.16954   0.18375
 Alpha virt. eigenvalues --    0.20234   0.21750   0.23538   0.29800   0.32352

 Mulliken charges:
               1
     1  N   -0.311768
     2  C    0.241458
     3  C    0.214411
     4  N   -0.444725
     5  C   -0.236504
     6  C   -0.159982
     7  N   -0.513801
     8  H    0.246955
     9  H    0.149418
    10  H    0.128925
    11  H    0.101751
    12  H    0.126252
    13  H    0.225596
    14  H    0.232014
 Sum of Mulliken charges =  -0.00000

 Dipole moment (field-independent basis, Debye):
    X=              2.4817    Y=              0.9389    Z=              0.9305  Tot=              2.8118
 Quadrupole moment (field-independent basis, Debye-Ang):
   XX=            -46.0505   YY=            -44.0233   ZZ=            -40.6714
   XY=             -4.9385   XZ=              2.9209   YZ=             -1.8461

  Exact polarizability:  76.813   4.325  63.149  -0.026  -0.887  40.776
 Approx polarizability: 103.734  16.859 109.026  -0.633  -1.255  62.829

                      1                      2                      3
                      A                      A                      A
 Frequencies --     73.9236               102.1105               127.7776
 Red. masses --      2.1204                 2.7641                 6.0479
 Frc consts  --      0.0068                 0.0170                 0.0582
 IR Inten    --      1.5997                 3.0104                 1.0708

                      4                      5                      6
                      A                      A                      A
 Frequencies --    238.1330               252.8587               296.4121
 Red. masses --      2.8050                 1.2962                 6.6444
 Frc consts  --      0.0937                 0.0488                 0.3440
 IR Inten    --     14.1586                39.3463                10.2307

                      7                      8                      9
                      A                      A                      A
 Frequencies --    381.3725               454.7530               568.2163
 Red. masses --      4.1459                 5.5916                 2.1664
 Frc consts  --      0.3553                 0.6813                 0.4121
 IR Inten    --      7.5400                 6.6016                10.5222

                     10                     11                     12
                      A                      A                      A
 Frequencies --    617.7386               789.7925               840.3225
 Red. masses --      5.9613                 1.3200                 3.8018
 Frc consts  --      1.3403                 0.4851                 1.5817
 IR Inten    --      7.2268                11.7909                48.7040

                     13                     14                     15
                      A                      A                      A
 Frequencies --    873.2862               944.0767               976.9110
 Red. masses --      1.5151                 1.3532                 2.2218
 Frc consts  --      0.6808                 0.7106                 1.2493
 IR Inten    --     69.0516                65.5381                10.6061

                     16                     17                     18
                      A                      A                      A
 Frequencies --   1048.6332              1076.2665              1108.6082
 Red. masses --      1.8418                 2.7138                 1.9561
 Frc consts  --      1.1933                 1.8521                 1.4164
 IR Inten    --     50.0648                 3.1308                 7.0900

                     19                     20                     21
                      A                      A                      A
 Frequencies --   1166.8956              1249.0116              1301.3275
 Red. masses --      1.2610                 1.3070                 1.3042
 Frc consts  --      1.0116                 1.2013                 1.3013
 IR Inten    --      5.2115                33.2931                31.9794

                     22                     23                     24
                      A                      A                      A
 Frequencies --   1331.0926              1387.1037              1435.2512
 Red. masses --      1.1649                 1.7295                 1.5648
 Frc consts  --      1.2160                 1.9606                 1.8991
 IR Inten    --      8.5724                34.9388                27.8108

                     25                     26                     27
                      A                      A                      A
 Frequencies --   1457.5824              1508.2040              1662.8796
 Red. masses --      1.0925                 1.0860                 1.0913
 Frc consts  --      1.3675                 1.4555                 1.7779
 IR Inten    --      9.3140                 0.8553                18.3650

                     28                     29                     30
                      A                      A                      A
 Frequencies --   1693.1461              2336.3341              2984.2206
 Red. masses --      8.1603                12.7107                 1.0721
 Frc consts  --     13.7831                40.8779                 5.6255
 IR Inten    --     47.8689                 0.5687                46.5376

                     31                     32                     33
                      A                      A                      A
 Frequencies --   3017.0215              3053.4589              3085.5338
 Red. masses --      1.0653                 1.0913                 1.0918
 Frc consts  --      5.7132                 5.9950                 6.1244
 IR Inten    --      8.3217                 4.8900                20.9934

                     34                     35                     36
                      A                      A                      A
 Frequencies --   3465.8605              3489.0645              3567.7700
 Red. masses --      1.0759                 1.0502                 1.0914
 Frc consts  --      7.6144                 7.5326                 8.1849
 IR Inten    --      2.5232                 0.3755                 0.3110

 - Thermochemistry -
 -------------------
 Temperature   298.150 Kelvin.  Pressure   1.00000 Atm.
 Atom     1 has atomic number  7 and mass  14.00307

 Molecular mass:    97.06400 amu.
 Principal axes and moments of inertia in atomic units:
                           1         2         3
     Eigenvalues --   271.957351386.952691631.56600
           X            0.99989  -0.01437   0.00460
           Y            0.01442   0.99984  -0.01028
           Z           -0.00445   0.01034   0.99994
 This molecule is an asymmetric top.
 Rotational symmetry number  1.
 Rotational temperatures (Kelvin)      0.31848     0.06245     0.05309
 Rotational constants (GHZ):           6.63612     1.30123     1.10614
 Zero-point vibrational energy     298844.8 (Joules/Mol)
                                   71.42562 (Kcal/Mol)
 Warning -- explicit consideration of  10 degrees of freedom as
           vibrations may cause significant error
 Vibrational temperatures:    106.36   146.91   183.84   342.62   363.81
          (Kelvin)            426.47   548.71   654.29   817.54   888.79
                             1136.34  1209.04  1256.46  1358.32  1405.56
                             1508.75  1548.51  1595.04  1678.90  1797.05
                             1872.32  1915.15  1995.73  2065.01  2097.14
                             2169.97  2392.51  2436.06  3361.46  4293.63
                             4340.82  4393.25  4439.39  4986.60  5019.99
                             5133.23

 Zero-point correction=                           0.113824 (Hartree/Particle)
 Thermal correction to Energy=                    0.121643
 Thermal correction to Enthalpy=                  0.122587
 Thermal correction to Gibbs Free Energy=         0.081315
 Sum of electronic and zero-point Energies=           -320.757997
 Sum of electronic and thermal Energies=              -320.750178
 Sum of electronic and thermal Enthalpies=            -320.749233
 Sum of electronic and thermal Free Energies=         -320.790505

                     E (Thermal)             CV                S
                      KCal/Mol        Cal/Mol-Kelvin    Cal/Mol-Kelvin
 Total                   76.332             26.645             86.864
 Electronic               0.000              0.000              0.000
 Translational            0.889              2.981             39.629
 Rotational               0.889              2.981             27.911
 Vibrational             74.555             20.683             19.323
 Vibration     1          0.599              1.966              4.046
 Vibration     2          0.604              1.947              3.414
 Vibration     3          0.611              1.925              2.979
 Vibration     4          0.656              1.782              1.817
 Vibration     5          0.664              1.758              1.711
 Vibration     6          0.690              1.680              1.437
 Vibration     7          0.751              1.510              1.034
 Vibration     8          0.813              1.350              0.782
 Vibration     9          0.924              1.100              0.508
 Vibration    10          0.978              0.994              0.420

 Optimization completed.
    -- Stationary point found.
 Normal termination of Gaussian 16 at Mon May 31 12:18:20 2021.
