 Gaussian 16, Revision A.03,
 Gaussian 16:  ES64L-G16RevA.03 25-Dec-2016

 -----------------------------
 # opt freq b3lyp/6-31g(2df,p)
 -----------------------------

 -------------------
 Title Card Required
 -------------------
 Symbolic Z-matrix:
 Charge =  0 Multiplicity = 1

 SCF Done:  E(RB3LYP) =  -432.780475335     A.U. after   13 cycles
 SCF Done:  E(RB3LYP) =  -432.788750706     A.U. after   14 cycles
 SCF Done:  E(RB3LYP) =  -432.787441932     A.U. after   13 cycles
 SCF Done:  E(RB3LYP) =  -432.793435887     A.U. after   12 cycles
 SCF Done:  E(RB3LYP) =  -432.795183276     A.U. after   13 cycles
 SCF Done:  E(RB3LYP) =  -432.797024737     A.U. after   13 cycles
 SCF Done:  E(RB3LYP) =  -432.798016813     A.U. after   11 cycles
 SCF Done:  E(RB3LYP) =  -432.798366238     A.U. after   13 cycles
 SCF Done:  E(RB3LYP) =  -432.798635560     A.U. after   10 cycles
 SCF Done:  E(RB3LYP) =  -432.798787915     A.U. after   11 cycles
 SCF Done:  E(RB3LYP) =  -432.800284304     A.U. after   13 cycles
 SCF Done:  E(RB3LYP) =  -432.801910367     A.U. after   11 cycles
 SCF Done:  E(RB3LYP) =  -432.802106150     A.U. after   13 cycles
 SCF Done:  E(RB3LYP) =  -432.802149483     A.U. after   10 cycles
 SCF Done:  E(RB3LYP) =  -432.802172236     A.U. after   10 cycles
 SCF Done:  E(RB3LYP) =  -432.802183585     A.U. after    9 cycles
 SCF Done:  E(RB3LYP) =  -432.802185700     A.U. after    9 cycles
 SCF Done:  E(RB3LYP) =  -432.802185949     A.U. after    7 cycles
 SCF Done:  E(RB3LYP) =  -432.802185991     A.U. after    7 cycles
 Optimization completed.
    -- Stationary point found.
 Normal termination of Gaussian 16 at Mon May 31 21:06:36 2021.

 ----------------------------------------------------------------------
 #N Geom=AllCheck Guess=TCheck SCRF=Check GenChk RB3LYP/6-31G(2df,p) Fr
 eq
 ----------------------------------------------------------------------

 Structure from the checkpoint file:  "NtCNCpNppCNpCN.chk"
 -------------------
 Title Card Required
 -------------------
 Charge =  0 Multiplicity = 1

                         Standard orientation:
 ---------------------------------------------------------------------
 Center     Atomic      Atomic             Coordinates (Angstroms)
 Number     Number       Type             X           Y           Z
 ---------------------------------------------------------------------
      1          7           0        3.096907   -0.676265    0.183641
      2          6           0        1.997877   -0.819159   -0.169982
      3          7           0        0.733010   -1.019675   -0.545869
      4          6           0       -0.378385   -0.159844    0.009931
      5          7           0       -0.312637   -0.075426    1.442080
      6          6           0       -0.315428    1.268555   -0.578687
      7          7           0        0.781132    2.034249    0.008263
      8          6           0       -1.674185   -0.880083   -0.411279
      9          7           0       -2.833435   -0.129750    0.055581
     10          1           0        0.626900   -1.273302   -1.520864
     11          1           0        0.361307    0.637566    1.708479
     12          1           0       -0.061855   -0.964311    1.860081
     13          1           0       -1.259393    1.759240   -0.333219
     14          1           0       -0.272357    1.176573   -1.676643
     15          1           0        0.648855    3.025915   -0.149056
     16          1           0        1.678873    1.778525   -0.388805
     17          1           0       -1.606435   -1.913511   -0.030432
     18          1           0       -1.713949   -0.945246   -1.507490
     19          1           0       -2.750626   -0.022977    1.063118
     20          1           0       -3.685437   -0.647218   -0.130947
 ---------------------------------------------------------------------

 SCF Done:  E(RB3LYP) =  -432.802185991     A.U. after    1 cycles

 The electronic state is 1-A.
 Alpha  occ. eigenvalues --  -14.37489 -14.31907 -14.31729 -14.31338 -14.30768
 Alpha  occ. eigenvalues --  -10.26555 -10.23338 -10.21791 -10.21273  -0.97599
 Alpha  occ. eigenvalues --   -0.90720  -0.88320  -0.87174  -0.85936  -0.73458
 Alpha  occ. eigenvalues --   -0.66708  -0.59261  -0.57843  -0.52824  -0.51636
 Alpha  occ. eigenvalues --   -0.49176  -0.47092  -0.45749  -0.43502  -0.41118
 Alpha  occ. eigenvalues --   -0.39977  -0.38494  -0.37370  -0.35377  -0.34554
 Alpha  occ. eigenvalues --   -0.31654  -0.26845  -0.25109  -0.24485  -0.24156
 Alpha virt. eigenvalues --    0.03243   0.06248   0.08180   0.08488   0.09975
 Alpha virt. eigenvalues --    0.11761   0.12903   0.14345   0.14836   0.15735
 Alpha virt. eigenvalues --    0.16635   0.18238   0.19782   0.20793   0.21948

 Mulliken charges:
               1
     1  N   -0.358473
     2  C    0.312148
     3  N   -0.412119
     4  C    0.223474
     5  N   -0.518927
     6  C   -0.150541
     7  N   -0.521119
     8  C   -0.171325
     9  N   -0.511183
    10  H    0.258913
    11  H    0.258448
    12  H    0.237562
    13  H    0.139260
    14  H    0.074795
    15  H    0.237498
    16  H    0.249585
    17  H    0.089698
    18  H    0.092324
    19  H    0.240810
    20  H    0.229174
 Sum of Mulliken charges =  -0.00000

 Dipole moment (field-independent basis, Debye):
    X=             -3.6021    Y=             -0.1437    Z=             -1.8907  Tot=              4.0707
 Quadrupole moment (field-independent basis, Debye-Ang):
   XX=            -67.4189   YY=            -49.7168   ZZ=            -50.7641
   XY=              7.0644   XZ=             -3.2880   YZ=             -0.4509

  Exact polarizability:  94.650   1.755  69.012   3.857   1.368  64.943
 Approx polarizability: 136.259   3.870  97.274  10.569   4.964 100.855

                      1                      2                      3
                      A                      A                      A
 Frequencies --     43.8242               127.4642               134.0222
 Red. masses --      5.1051                 5.4773                 2.7610
 Frc consts  --      0.0058                 0.0524                 0.0292
 IR Inten    --      8.4827                 9.1097                 2.7564

                      4                      5                      6
                      A                      A                      A
 Frequencies --    159.0788               228.9534               258.6181
 Red. masses --      3.0723                 2.9267                 1.7160
 Frc consts  --      0.0458                 0.0904                 0.0676
 IR Inten    --      1.7535                 3.3145                23.8810

                      7                      8                      9
                      A                      A                      A
 Frequencies --    277.2347               305.6810               339.4746
 Red. masses --      1.1272                 1.6707                 1.7292
 Frc consts  --      0.0510                 0.0920                 0.1174
 IR Inten    --     26.8710                35.5555                 3.2471

                     10                     11                     12
                      A                      A                      A
 Frequencies --    372.8562               406.8166               418.6439
 Red. masses --      2.6598                 2.0819                 1.7743
 Frc consts  --      0.2179                 0.2030                 0.1832
 IR Inten    --     32.5131                43.5427                13.8219

                     13                     14                     15
                      A                      A                      A
 Frequencies --    436.4767               456.6200               553.5901
 Red. masses --      3.0276                 2.0722                 5.3672
 Frc consts  --      0.3398                 0.2546                 0.9691
 IR Inten    --     11.0250                35.5967                 6.6424

                     16                     17                     18
                      A                      A                      A
 Frequencies --    589.2141               657.0186               786.8183
 Red. masses --      3.7299                 2.9563                 2.3765
 Frc consts  --      0.7630                 0.7519                 0.8669
 IR Inten    --     55.6119                18.4069                35.2298

                     19                     20                     21
                      A                      A                      A
 Frequencies --    830.1515               855.2206               884.1795
 Red. masses --      1.4284                 1.8165                 1.3316
 Frc consts  --      0.5800                 0.7828                 0.6133
 IR Inten    --     83.7720               174.9387                83.8078

                     22                     23                     24
                      A                      A                      A
 Frequencies --    908.4098               939.2671              1001.9021
 Red. masses --      2.0349                 2.0051                 1.5572
 Frc consts  --      0.9894                 1.0422                 0.9210
 IR Inten    --     15.7722                63.2801                26.7321

                     25                     26                     27
                      A                      A                      A
 Frequencies --   1051.3824              1091.3557              1111.4033
 Red. masses --      2.4210                 2.7004                 1.8059
 Frc consts  --      1.5767                 1.8950                 1.3143
 IR Inten    --      7.5660                10.1753                11.2258

                     28                     29                     30
                      A                      A                      A
 Frequencies --   1148.9007              1158.9509              1211.1522
 Red. masses --      4.2041                 1.3667                 1.4270
 Frc consts  --      3.2696                 1.0816                 1.2333
 IR Inten    --     44.0636                 2.6242                42.8125

                     31                     32                     33
                      A                      A                      A
 Frequencies --   1256.7711              1292.6767              1340.9047
 Red. masses --      2.0225                 1.3586                 1.2780
 Frc consts  --      1.8822                 1.3375                 1.3538
 IR Inten    --      5.7982                 3.6563                29.0882

                     34                     35                     36
                      A                      A                      A
 Frequencies --   1355.9765              1420.8231              1429.7120
 Red. masses --      1.4194                 1.5703                 1.5493
 Frc consts  --      1.5377                 1.8677                 1.8659
 IR Inten    --      3.2876                 3.2682                 3.5790

                     37                     38                     39
                      A                      A                      A
 Frequencies --   1441.9474              1500.0289              1509.7593
 Red. masses --      1.4510                 1.0886                 1.0872
 Frc consts  --      1.7775                 1.4431                 1.4600
 IR Inten    --     39.4039                 0.6374                 3.6720

                     40                     41                     42
                      A                      A                      A
 Frequencies --   1630.9835              1637.4436              1664.6315
 Red. masses --      1.1002                 1.0915                 1.0888
 Frc consts  --      1.7244                 1.7243                 1.7776
 IR Inten    --     52.9167                37.8224                29.2369

                     43                     44                     45
                      A                      A                      A
 Frequencies --   2331.9211              2952.8478              2961.6526
 Red. masses --     12.3740                 1.0690                 1.0733
 Frc consts  --     39.6448                 5.4919                 5.5467
 IR Inten    --    138.3387                64.7455                56.9132

                     46                     47                     48
                      A                      A                      A
 Frequencies --   3024.3567              3113.9398              3492.0641
 Red. masses --      1.0909                 1.0890                 1.0496
 Frc consts  --      5.8788                 6.2213                 7.5408
 IR Inten    --     42.4079                 7.1622                22.9217

                     49                     50                     51
                      A                      A                      A
 Frequencies --   3494.9470              3518.1935              3556.2159
 Red. masses --      1.0494                 1.0496                 1.0740
 Frc consts  --      7.5519                 7.6542                 8.0023
 IR Inten    --      3.1815                 1.4672                15.9543

                     52                     53                     54
                      A                      A                      A
 Frequencies --   3581.7667              3590.3392              3601.2514
 Red. masses --      1.0921                 1.0926                 1.0937
 Frc consts  --      8.2549                 8.2985                 8.3570
 IR Inten    --      4.5977                20.4812                 6.1319

 - Thermochemistry -
 -------------------
 Temperature   298.150 Kelvin.  Pressure   1.00000 Atm.
 Atom     1 has atomic number  7 and mass  14.00307

 Molecular mass:   129.10145 amu.
 Principal axes and moments of inertia in atomic units:
                           1         2         3
     Eigenvalues --   700.863961558.036381862.41675
           X            0.99932   0.03676  -0.00049
           Y           -0.03677   0.99926  -0.01106
           Z            0.00009   0.01107   0.99994
 This molecule is an asymmetric top.
 Rotational symmetry number  1.
 Warning -- assumption of classical behavior for rotation
           may cause significant error
 Rotational temperatures (Kelvin)      0.12358     0.05559     0.04651
 Rotational constants (GHZ):           2.57502     1.15834     0.96903
 Zero-point vibrational energy     451266.3 (Joules/Mol)
                                  107.85524 (Kcal/Mol)
 Warning -- explicit consideration of  16 degrees of freedom as
           vibrations may cause significant error
 Vibrational temperatures:     63.05   183.39   192.83   228.88   329.41
          (Kelvin)            372.09   398.88   439.81   488.43   536.46
                              585.32   602.34   627.99   656.97   796.49
                              847.75   945.30  1132.06  1194.40  1230.47
                             1272.14  1307.00  1351.40  1441.51  1512.70
                             1570.22  1599.06  1653.01  1667.47  1742.58
                             1808.21  1859.87  1929.26  1950.95  2044.25
                             2057.04  2074.64  2158.21  2172.21  2346.62
                             2355.92  2395.03  3355.11  4248.49  4261.16
                             4351.37  4480.26  5024.30  5028.45  5061.90
                             5116.60  5153.36  5165.70  5181.40

 Zero-point correction=                           0.171878 (Hartree/Particle)
 Thermal correction to Energy=                    0.182343
 Thermal correction to Enthalpy=                  0.183288
 Thermal correction to Gibbs Free Energy=         0.136591
 Sum of electronic and zero-point Energies=           -432.630308
 Sum of electronic and thermal Energies=              -432.619842
 Sum of electronic and thermal Enthalpies=            -432.618898
 Sum of electronic and thermal Free Energies=         -432.665595

                     E (Thermal)             CV                S
                      KCal/Mol        Cal/Mol-Kelvin    Cal/Mol-Kelvin
 Total                  114.422             38.823             98.281
 Electronic               0.000              0.000              0.000
 Translational            0.889              2.981             40.479
 Rotational               0.889              2.981             29.099
 Vibrational            112.645             32.861             28.703
 Vibration     1          0.595              1.980              5.078
 Vibration     2          0.611              1.926              2.984
 Vibration     3          0.613              1.919              2.887
 Vibration     4          0.621              1.892              2.561
 Vibration     5          0.652              1.797              1.887
 Vibration     6          0.667              1.748              1.671
 Vibration     7          0.678              1.716              1.551
 Vibration     8          0.696              1.663              1.386
 Vibration     9          0.719              1.597              1.215
 Vibration    10          0.744              1.528              1.068
 Vibration    11          0.772              1.455              0.938
 Vibration    12          0.781              1.430              0.897
 Vibration    13          0.797              1.391              0.838
 Vibration    14          0.815              1.346              0.776
 Vibration    15          0.909              1.132              0.537
 Vibration    16          0.946              1.055              0.469

 Optimization completed.
    -- Stationary point found.
 Normal termination of Gaussian 16 at Mon May 31 21:39:11 2021.
