 Gaussian 16, Revision A.03,
 Gaussian 16:  ES64L-G16RevA.03 25-Dec-2016

 -----------------------------
 # opt freq b3lyp/6-31g(2df,p)
 -----------------------------

 -------------------
 Title Card Required
 -------------------
 Symbolic Z-matrix:
 Charge =  0 Multiplicity = 1

 SCF Done:  E(RB3LYP) =  -432.731404384     A.U. after   13 cycles
 SCF Done:  E(RB3LYP) =  -432.741330751     A.U. after   13 cycles
 SCF Done:  E(RB3LYP) =  -432.742681271     A.U. after   12 cycles
 SCF Done:  E(RB3LYP) =  -432.742855609     A.U. after   13 cycles
 SCF Done:  E(RB3LYP) =  -432.744041407     A.U. after   12 cycles
 SCF Done:  E(RB3LYP) =  -432.745490735     A.U. after   12 cycles
 SCF Done:  E(RB3LYP) =  -432.748010799     A.U. after   12 cycles
 SCF Done:  E(RB3LYP) =  -432.750163410     A.U. after   12 cycles
 SCF Done:  E(RB3LYP) =  -432.751469391     A.U. after   12 cycles
 SCF Done:  E(RB3LYP) =  -432.752058967     A.U. after   11 cycles
 SCF Done:  E(RB3LYP) =  -432.752583904     A.U. after   11 cycles
 SCF Done:  E(RB3LYP) =  -432.752620327     A.U. after   10 cycles
 SCF Done:  E(RB3LYP) =  -432.752639771     A.U. after   10 cycles
 SCF Done:  E(RB3LYP) =  -432.752643982     A.U. after    9 cycles
 SCF Done:  E(RB3LYP) =  -432.752647963     A.U. after    9 cycles
 SCF Done:  E(RB3LYP) =  -432.752649012     A.U. after    9 cycles
 SCF Done:  E(RB3LYP) =  -432.752649144     A.U. after    7 cycles
 SCF Done:  E(RB3LYP) =  -432.752649180     A.U. after    7 cycles
 SCF Done:  E(RB3LYP) =  -432.752649182     A.U. after    7 cycles
 Optimization completed.
    -- Stationary point found.
 Normal termination of Gaussian 16 at Tue Jun  1 05:03:15 2021.

 ----------------------------------------------------------------------
 #N Geom=AllCheck Guess=TCheck SCRF=Check GenChk RB3LYP/6-31G(2df,p) Fr
 eq
 ----------------------------------------------------------------------

 Structure from the checkpoint file:  "NtCNpCNpCCNN.chk"
 -------------------
 Title Card Required
 -------------------
 Charge =  0 Multiplicity = 1

                         Standard orientation:
 ---------------------------------------------------------------------
 Center     Atomic      Atomic             Coordinates (Angstroms)
 Number     Number       Type             X           Y           Z
 ---------------------------------------------------------------------
      1          7           0        2.439077   -2.082800    0.430465
      2          6           0        1.789321   -1.163749    0.139252
      3          7           0        1.002179   -0.133093   -0.176406
      4          6           0        1.635780    1.147929   -0.527010
      5          7           0        2.567542    1.536337    0.501840
      6          6           0       -0.335946   -0.416925   -0.710790
      7          6           0       -1.443232    0.077786    0.225039
      8          7           0       -2.748733   -0.166573   -0.374212
      9          7           0       -3.856758    0.221179    0.437675
     10          1           0        0.801024    1.844762   -0.696584
     11          1           0        2.191480    1.060902   -1.471684
     12          1           0        2.099434    1.933798    1.308002
     13          1           0        3.244568    2.203116    0.153827
     14          1           0       -0.420744   -1.497662   -0.854671
     15          1           0       -0.452636    0.047260   -1.697218
     16          1           0       -1.340063    1.160097    0.377856
     17          1           0       -1.317347   -0.397462    1.215719
     18          1           0       -2.864343   -1.157960   -0.559988
     19          1           0       -3.998469    1.217961    0.300759
     20          1           0       -3.641598    0.089604    1.429498
 ---------------------------------------------------------------------

 SCF Done:  E(RB3LYP) =  -432.752649182     A.U. after    1 cycles

 The electronic state is 1-A.
 Alpha  occ. eigenvalues --  -14.37842 -14.34894 -14.34272 -14.33225 -14.29873
 Alpha  occ. eigenvalues --  -10.26624 -10.23932 -10.22325 -10.22160  -0.98276
 Alpha  occ. eigenvalues --   -0.96661  -0.89605  -0.86495  -0.80396  -0.72443
 Alpha  occ. eigenvalues --   -0.69171  -0.63735  -0.55937  -0.52217  -0.51470
 Alpha  occ. eigenvalues --   -0.49609  -0.48096  -0.46929  -0.44982  -0.44911
 Alpha  occ. eigenvalues --   -0.41793  -0.39628  -0.37309  -0.35122  -0.33834
 Alpha  occ. eigenvalues --   -0.30910  -0.26468  -0.26020  -0.24517  -0.23398
 Alpha virt. eigenvalues --    0.04357   0.06026   0.07076   0.08742   0.09113
 Alpha virt. eigenvalues --    0.09785   0.10336   0.11893   0.13551   0.15211
 Alpha virt. eigenvalues --    0.16360   0.16748   0.17505   0.18130   0.20836

 Mulliken charges:
               1
     1  N   -0.374600
     2  C    0.347714
     3  N   -0.150304
     4  C   -0.139548
     5  N   -0.476595
     6  C   -0.214300
     7  C   -0.112870
     8  N   -0.273560
     9  N   -0.464107
    10  H    0.103585
    11  H    0.121816
    12  H    0.237685
    13  H    0.242007
    14  H    0.136628
    15  H    0.128221
    16  H    0.098441
    17  H    0.094305
    18  H    0.234654
    19  H    0.242051
    20  H    0.218779
 Sum of Mulliken charges =  -0.00000

 Dipole moment (field-independent basis, Debye):
    X=             -1.8524    Y=              4.9432    Z=             -0.4618  Tot=              5.2991
 Quadrupole moment (field-independent basis, Debye-Ang):
   XX=            -68.4470   YY=            -54.1346   ZZ=            -52.8029
   XY=             12.5863   XZ=             -7.5170   YZ=              3.7022

  Exact polarizability:  92.131  -6.200  79.170   1.432  -2.044  64.001
 Approx polarizability: 115.306 -16.040 120.429   5.690  -6.787  96.624

                      1                      2                      3
                      A                      A                      A
 Frequencies --     29.3909                41.2719                80.4275
 Red. masses --      3.7612                 3.3573                 2.0968
 Frc consts  --      0.0019                 0.0034                 0.0080
 IR Inten    --      5.5723                 1.9618                 7.7993

                      4                      5                      6
                      A                      A                      A
 Frequencies --    111.3348               126.9634               173.4794
 Red. masses --      2.8550                 2.9694                 3.4054
 Frc consts  --      0.0209                 0.0282                 0.0604
 IR Inten    --      1.1750                 0.5325                 2.1117

                      7                      8                      9
                      A                      A                      A
 Frequencies --    195.1610               240.4397               305.4537
 Red. masses --      2.3287                 1.5104                 2.4716
 Frc consts  --      0.0523                 0.0514                 0.1359
 IR Inten    --     23.5980                19.4336                 7.7636

                     10                     11                     12
                      A                      A                      A
 Frequencies --    340.2768               358.5915               453.2548
 Red. masses --      5.9455                 1.1940                 3.4046
 Frc consts  --      0.4056                 0.0905                 0.4121
 IR Inten    --      1.3283                26.3676                 0.1736

                     13                     14                     15
                      A                      A                      A
 Frequencies --    479.9548               552.1899               659.0007
 Red. masses --      4.0704                10.2112                 3.6322
 Frc consts  --      0.5524                 1.8344                 0.9294
 IR Inten    --     15.0823                12.0041                49.3419

                     16                     17                     18
                      A                      A                      A
 Frequencies --    745.0023               793.1516               801.1119
 Red. masses --      1.7926                 1.3377                 1.5036
 Frc consts  --      0.5862                 0.4958                 0.5685
 IR Inten    --     28.4476               120.3593                45.1566

                     19                     20                     21
                      A                      A                      A
 Frequencies --    824.6297               951.4560               990.7517
 Red. masses --      2.2643                 1.4741                 1.4558
 Frc consts  --      0.9072                 0.7862                 0.8419
 IR Inten    --     13.9319                73.7044                 1.0703

                     22                     23                     24
                      A                      A                      A
 Frequencies --   1040.0290              1062.7322              1104.9077
 Red. masses --      2.7902                 2.2950                 2.4857
 Frc consts  --      1.7782                 1.5272                 1.7879
 IR Inten    --     14.9597                30.5183                 7.1051

                     25                     26                     27
                      A                      A                      A
 Frequencies --   1126.9224              1147.9785              1175.8690
 Red. masses --      3.0384                 2.8348                 2.0377
 Frc consts  --      2.2734                 2.2011                 1.6600
 IR Inten    --     32.7830                12.1189                76.6799

                     28                     29                     30
                      A                      A                      A
 Frequencies --   1217.1322              1265.9767              1282.5109
 Red. masses --      1.5287                 1.7174                 1.5772
 Frc consts  --      1.3343                 1.6217                 1.5285
 IR Inten    --      9.9332                25.5508                18.7179

                     31                     32                     33
                      A                      A                      A
 Frequencies --   1323.5355              1337.5877              1341.0223
 Red. masses --      1.2657                 1.2199                 1.2200
 Frc consts  --      1.3063                 1.2860                 1.2927
 IR Inten    --     26.1107                10.1066                 6.5253

                     34                     35                     36
                      A                      A                      A
 Frequencies --   1381.8841              1418.3149              1458.8413
 Red. masses --      1.4879                 1.4555                 1.3383
 Frc consts  --      1.6741                 1.7250                 1.6781
 IR Inten    --     24.7604                11.2565                24.9799

                     37                     38                     39
                      A                      A                      A
 Frequencies --   1492.3201              1510.0835              1519.2136
 Red. masses --      1.0991                 1.1183                 1.0986
 Frc consts  --      1.4422                 1.5024                 1.4939
 IR Inten    --     10.4725                 1.3396                 7.3277

                     40                     41                     42
                      A                      A                      A
 Frequencies --   1521.1679              1655.6409              1684.0218
 Red. masses --      1.0859                 1.1035                 1.0642
 Frc consts  --      1.4804                 1.7822                 1.7781
 IR Inten    --      1.3620                28.3732                15.1634

                     43                     44                     45
                      A                      A                      A
 Frequencies --   2336.4883              2934.4248              2977.5909
 Red. masses --     12.5054                 1.0712                 1.0589
 Frc consts  --     40.2229                 5.4347                 5.5317
 IR Inten    --    165.6557                50.9599                53.8907

                     46                     47                     48
                      A                      A                      A
 Frequencies --   3017.7420              3032.5929              3038.8216
 Red. masses --      1.1028                 1.0876                 1.0638
 Frc consts  --      5.9170                 5.8930                 5.7877
 IR Inten    --     51.3635                27.4044                30.1037

                     49                     50                     51
                      A                      A                      A
 Frequencies --   3098.8253              3387.4690              3504.4359
 Red. masses --      1.1023                 1.0556                 1.0756
 Frc consts  --      6.2365                 7.1369                 7.7828
 IR Inten    --     15.9346                15.4582                 1.9202

                     52                     53                     54
                      A                      A                      A
 Frequencies --   3527.9433              3530.2578              3621.6004
 Red. masses --      1.0491                 1.0837                 1.0943
 Frc consts  --      7.6934                 7.9578                 8.4568
 IR Inten    --      2.0876                 0.2147                 5.2365

 - Thermochemistry -
 -------------------
 Temperature   298.150 Kelvin.  Pressure   1.00000 Atm.
 Atom     1 has atomic number  7 and mass  14.00307

 Molecular mass:   129.10145 amu.
 Principal axes and moments of inertia in atomic units:
                           1         2         3
     Eigenvalues --   650.334612487.185362898.32069
           X            0.99966   0.02421  -0.00957
           Y           -0.02402   0.99954   0.01870
           Z            0.01002  -0.01847   0.99978
 This molecule is an asymmetric top.
 Rotational symmetry number  1.
 Warning -- assumption of classical behavior for rotation
           may cause significant error
 Rotational temperatures (Kelvin)      0.13318     0.03482     0.02988
 Rotational constants (GHZ):           2.77510     0.72562     0.62269
 Zero-point vibrational energy     450568.5 (Joules/Mol)
                                  107.68847 (Kcal/Mol)
 Warning -- explicit consideration of  14 degrees of freedom as
           vibrations may cause significant error
 Vibrational temperatures:     42.29    59.38   115.72   160.19   182.67
          (Kelvin)            249.60   280.79   345.94   439.48   489.58
                              515.93   652.13   690.55   794.48   948.16
                             1071.89  1141.17  1152.62  1186.46  1368.93
                             1425.47  1496.37  1529.03  1589.72  1621.39
                             1651.68  1691.81  1751.18  1821.46  1845.25
                             1904.27  1924.49  1929.43  1988.22  2040.64
                             2098.95  2147.12  2172.67  2185.81  2188.62
                             2382.10  2422.93  3361.69  4221.98  4284.09
                             4341.86  4363.22  4372.19  4458.52  4873.81
                             5042.10  5075.92  5079.25  5210.68

 Zero-point correction=                           0.171612 (Hartree/Particle)
 Thermal correction to Energy=                    0.182645
 Thermal correction to Enthalpy=                  0.183589
 Thermal correction to Gibbs Free Energy=         0.133317
 Sum of electronic and zero-point Energies=           -432.581037
 Sum of electronic and thermal Energies=              -432.570004
 Sum of electronic and thermal Enthalpies=            -432.569060
 Sum of electronic and thermal Free Energies=         -432.619333

                     E (Thermal)             CV                S
                      KCal/Mol        Cal/Mol-Kelvin    Cal/Mol-Kelvin
 Total                  114.611             37.484            105.807
 Electronic               0.000              0.000              0.000
 Translational            0.889              2.981             40.479
 Rotational               0.889              2.981             29.929
 Vibrational            112.834             31.522             35.399
 Vibration     1          0.593              1.984              5.870
 Vibration     2          0.594              1.981              5.197
 Vibration     3          0.600              1.962              3.880
 Vibration     4          0.607              1.940              3.246
 Vibration     5          0.611              1.926              2.992
 Vibration     6          0.627              1.875              2.397
 Vibration     7          0.636              1.847              2.178
 Vibration     8          0.658              1.779              1.800
 Vibration     9          0.696              1.663              1.387
 Vibration    10          0.720              1.595              1.211
 Vibration    11          0.733              1.558              1.128
 Vibration    12          0.812              1.354              0.786
 Vibration    13          0.836              1.295              0.710
 Vibration    14          0.908              1.135              0.540

                           ! Non-Optimized Parameters !
 Normal termination of Gaussian 16 at Tue Jun  1 05:29:37 2021.
