 Gaussian 16, Revision A.03,
 Gaussian 16:  ES64L-G16RevA.03 25-Dec-2016

 -----------------------------
 # opt freq b3lyp/6-31g(2df,p)
 -----------------------------

 -------------------
 Title Card Required
 -------------------
 Symbolic Z-matrix:
 Charge =  0 Multiplicity = 1

 SCF Done:  E(RB3LYP) =  -464.688861361     A.U. after   13 cycles
 SCF Done:  E(RB3LYP) =  -464.710325550     A.U. after   13 cycles
 SCF Done:  E(RB3LYP) =  -464.717522558     A.U. after   15 cycles
 SCF Done:  E(RB3LYP) =  -464.721045834     A.U. after   15 cycles
 SCF Done:  E(RB3LYP) =  -464.724595510     A.U. after   15 cycles
 SCF Done:  E(RB3LYP) =  -464.728447326     A.U. after   15 cycles
 SCF Done:  E(RB3LYP) =  -464.738289696     A.U. after   14 cycles
 SCF Done:  E(RB3LYP) =  -464.742172962     A.U. after   14 cycles
 SCF Done:  E(RB3LYP) =  -464.744569793     A.U. after   12 cycles
 SCF Done:  E(RB3LYP) =  -464.746895373     A.U. after   14 cycles
 SCF Done:  E(RB3LYP) =  -464.754962213     A.U. after   11 cycles
 SCF Done:  E(RB3LYP) =  -464.755693157     A.U. after   12 cycles
 SCF Done:  E(RB3LYP) =  -464.756364755     A.U. after   12 cycles
 SCF Done:  E(RB3LYP) =  -464.756699483     A.U. after   13 cycles
 SCF Done:  E(RB3LYP) =  -464.756843506     A.U. after   10 cycles
 SCF Done:  E(RB3LYP) =  -464.756886885     A.U. after   10 cycles
 SCF Done:  E(RB3LYP) =  -464.756891793     A.U. after    8 cycles
 SCF Done:  E(RB3LYP) =  -464.756892421     A.U. after    7 cycles
 SCF Done:  E(RB3LYP) =  -464.756892649     A.U. after    7 cycles
 Optimization completed.
    -- Stationary point found.
 Normal termination of Gaussian 16 at Mon May 31 16:08:26 2021.

 ----------------------------------------------------------------------
 #N Geom=AllCheck Guess=TCheck SCRF=Check GenChk RB3LYP/6-31G(2df,p) Fr
 eq
 ----------------------------------------------------------------------

 Structure from the checkpoint file:  "NtCNNNNNCN.chk"
 -------------------
 Title Card Required
 -------------------
 Charge =  0 Multiplicity = 1

                         Standard orientation:
 ---------------------------------------------------------------------
 Center     Atomic      Atomic             Coordinates (Angstroms)
 Number     Number       Type             X           Y           Z
 ---------------------------------------------------------------------
      1          7           0       -4.315812   -0.299683   -0.205575
      2          6           0       -3.260826    0.085432    0.085122
      3          7           0       -2.075076    0.598773    0.463695
      4          7           0       -1.086355    0.623061   -0.554559
      5          7           0       -0.356034   -0.595469   -0.549163
      6          7           0        0.514148   -0.638064    0.581016
      7          7           0        1.645712    0.210103    0.432503
      8          6           0        2.826675   -0.438429   -0.140171
      9          7           0        3.912589    0.521438   -0.101216
     10          1           0       -1.721342    0.212532    1.337669
     11          1           0       -0.452594    1.381788   -0.295536
     12          1           0        0.175315   -0.583295   -1.420572
     13          1           0        0.780247   -1.615491    0.702329
     14          1           0        1.890956    0.586966    1.343032
     15          1           0        2.551699   -0.795946   -1.147762
     16          1           0        3.137080   -1.324338    0.442205
     17          1           0        3.771119    1.244650   -0.798906
     18          1           0        4.798222    0.069997   -0.299080
 ---------------------------------------------------------------------

 SCF Done:  E(RB3LYP) =  -464.756892649     A.U. after    1 cycles

 The electronic state is 1-A.
 Alpha  occ. eigenvalues --  -14.39646 -14.39348 -14.39269 -14.38738 -14.36475
 Alpha  occ. eigenvalues --  -14.33652 -14.30437 -10.25893 -10.22624  -1.06419
 Alpha  occ. eigenvalues --   -1.00004  -0.92980  -0.89281  -0.86488  -0.79830
 Alpha  occ. eigenvalues --   -0.71462  -0.65961  -0.58587  -0.55600  -0.53984
 Alpha  occ. eigenvalues --   -0.53122  -0.52336  -0.51423  -0.46139  -0.44870
 Alpha  occ. eigenvalues --   -0.42235  -0.37426  -0.34168  -0.31732  -0.29682
 Alpha  occ. eigenvalues --   -0.28901  -0.28042  -0.26665  -0.26166  -0.25384
 Alpha virt. eigenvalues --    0.04004   0.05639   0.06296   0.08278   0.08702
 Alpha virt. eigenvalues --    0.09396   0.10751   0.12645   0.13481   0.14512
 Alpha virt. eigenvalues --    0.16119   0.18174   0.19696   0.20169   0.20460

 Mulliken charges:
               1
     1  N   -0.330048
     2  C    0.363108
     3  N   -0.338587
     4  N   -0.236167
     5  N   -0.220679
     6  N   -0.275747
     7  N   -0.251026
     8  C   -0.090912
     9  N   -0.507481
    10  H    0.264556
    11  H    0.243311
    12  H    0.235688
    13  H    0.235973
    14  H    0.241777
    15  H    0.092141
    16  H    0.095031
    17  H    0.239495
    18  H    0.239568
 Sum of Mulliken charges =  -0.00000

 Dipole moment (field-independent basis, Debye):
    X=              8.0274    Y=             -0.2928    Z=              0.6058  Tot=              8.0555
 Quadrupole moment (field-independent basis, Debye-Ang):
   XX=            -71.2013   YY=            -52.0505   ZZ=            -50.1043
   XY=             -5.3239   XZ=             -8.5821   YZ=             -1.2772

  Exact polarizability: 107.629   3.553  58.487   2.087   0.130  55.855
 Approx polarizability: 134.264  10.353  91.416   7.674   2.175  87.129

                      1                      2                      3
                      A                      A                      A
 Frequencies --     44.3030                52.7433                82.2139
 Red. masses --      5.7481                 6.0626                 5.4847
 Frc consts  --      0.0066                 0.0099                 0.0218
 IR Inten    --      1.5702                 5.0561                 1.7006

                      4                      5                      6
                      A                      A                      A
 Frequencies --    112.4436               164.0607               205.9748
 Red. masses --      2.3015                 3.7358                 4.1447
 Frc consts  --      0.0171                 0.0592                 0.1036
 IR Inten    --      3.5601                 1.7061                15.6026

                      7                      8                      9
                      A                      A                      A
 Frequencies --    261.9421               332.8874               342.6540
 Red. masses --      1.3598                 2.8500                 3.6105
 Frc consts  --      0.0550                 0.1861                 0.2498
 IR Inten    --     26.7306                 6.3203                18.0432

                     10                     11                     12
                      A                      A                      A
 Frequencies --    468.8389               520.1759               567.3119
 Red. masses --      3.0576                 5.0116                 2.6263
 Frc consts  --      0.3960                 0.7990                 0.4980
 IR Inten    --     35.7046                 1.9437                24.9776

                     13                     14                     15
                      A                      A                      A
 Frequencies --    632.1571               648.0914               700.2619
 Red. masses --      2.2595                 3.7592                 2.7995
 Frc consts  --      0.5320                 0.9303                 0.8088
 IR Inten    --     30.8991                22.5094                38.2308

                     16                     17                     18
                      A                      A                      A
 Frequencies --    755.3926               813.5302               838.8289
 Red. masses --      2.1551                 2.4035                 1.3221
 Frc consts  --      0.7245                 0.9372                 0.5481
 IR Inten    --     44.4360                48.8437               194.0823

                     19                     20                     21
                      A                      A                      A
 Frequencies --    892.6361               972.1295               999.2690
 Red. masses --      2.7661                 1.4211                 2.2052
 Frc consts  --      1.2986                 0.7912                 1.2974
 IR Inten    --     61.9508                10.0946                 6.6097

                     22                     23                     24
                      A                      A                      A
 Frequencies --   1038.1782              1068.1456              1106.1352
 Red. masses --      2.3273                 4.0474                 2.0933
 Frc consts  --      1.4779                 2.7208                 1.5090
 IR Inten    --      9.5744                17.9025                20.9350

                     25                     26                     27
                      A                      A                      A
 Frequencies --   1108.4340              1149.9043              1168.4238
 Red. masses --      3.1033                 2.2613                 2.2165
 Frc consts  --      2.2464                 1.7617                 1.7828
 IR Inten    --     37.1432                38.1097                12.9593

                     28                     29                     30
                      A                      A                      A
 Frequencies --   1217.7339              1243.9612              1330.3367
 Red. masses --      1.5312                 1.6455                 1.2812
 Frc consts  --      1.3378                 1.5002                 1.3359
 IR Inten    --      3.9179                41.2213                 1.0709

                     31                     32                     33
                      A                      A                      A
 Frequencies --   1419.3448              1439.1183              1467.1644
 Red. masses --      1.2343                 1.1435                 1.1007
 Frc consts  --      1.4650                 1.3953                 1.3959
 IR Inten    --     14.9580                 9.7943                 1.6553

                     34                     35                     36
                      A                      A                      A
 Frequencies --   1470.6551              1500.3263              1526.1306
 Red. masses --      1.1922                 1.2069                 1.1746
 Frc consts  --      1.5192                 1.6007                 1.6119
 IR Inten    --     58.0330                 4.3691                 3.1053

                     37                     38                     39
                      A                      A                      A
 Frequencies --   1533.9230              1650.3378              2351.4889
 Red. masses --      1.0905                 1.0999                12.3422
 Frc consts  --      1.5117                 1.7650                40.2096
 IR Inten    --      0.9074                28.8033               113.7987

                     40                     41                     42
                      A                      A                      A
 Frequencies --   2936.0883              2959.2319              3422.2454
 Red. masses --      1.0533                 1.1072                 1.0737
 Frc consts  --      5.3498                 5.7126                 7.4086
 IR Inten    --     68.5715                74.9834                 8.3266

                     43                     44                     45
                      A                      A                      A
 Frequencies --   3436.8249              3437.3215              3469.4525
 Red. masses --      1.0737                 1.0748                 1.0728
 Frc consts  --      7.4721                 7.4818                 7.6084
 IR Inten    --      2.2155                 1.8644                34.9379

                     46                     47                     48
                      A                      A                      A
 Frequencies --   3512.6473              3516.6109              3599.5098
 Red. masses --      1.0494                 1.0752                 1.0931
 Frc consts  --      7.6288                 7.8341                 8.3447
 IR Inten    --      1.0465                 3.5555                 2.8739

 - Thermochemistry -
 -------------------
 Temperature   298.150 Kelvin.  Pressure   1.00000 Atm.
 Atom     1 has atomic number  7 and mass  14.00307

 Molecular mass:   131.09194 amu.
 Principal axes and moments of inertia in atomic units:
                           1         2         3
     Eigenvalues --   238.762323239.358103275.28077
           X            0.99998  -0.00314  -0.00614
           Y            0.00295   0.99952  -0.03085
           Z            0.00623   0.03083   0.99951
 This molecule is an asymmetric top.
 Rotational symmetry number  1.
 Rotational temperatures (Kelvin)      0.36276     0.02674     0.02644
 Rotational constants (GHZ):           7.55874     0.55713     0.55102
 Zero-point vibrational energy     391702.4 (Joules/Mol)
                                   93.61911 (Kcal/Mol)
 Warning -- explicit consideration of  12 degrees of freedom as
           vibrations may cause significant error
 Vibrational temperatures:     63.74    75.89   118.29   161.78   236.05
          (Kelvin)            296.35   376.88   478.95   493.00   674.55
                              748.42   816.24   909.53   932.46  1007.52
                             1086.84  1170.49  1206.89  1284.30  1398.68
                             1437.73  1493.71  1536.82  1591.48  1594.79
                             1654.46  1681.10  1752.05  1789.78  1914.06
                             2042.12  2070.57  2110.92  2115.94  2158.63
                             2195.76  2206.97  2374.47  3383.27  4224.38
                             4257.67  4923.85  4944.82  4945.54  4991.77
                             5053.92  5059.62  5178.89

 Zero-point correction=                           0.149192 (Hartree/Particle)
 Thermal correction to Energy=                    0.159195
 Thermal correction to Enthalpy=                  0.160139
 Thermal correction to Gibbs Free Energy=         0.112714
 Sum of electronic and zero-point Energies=           -464.607701
 Sum of electronic and thermal Energies=              -464.597697
 Sum of electronic and thermal Enthalpies=            -464.596753
 Sum of electronic and thermal Free Energies=         -464.644179

                     E (Thermal)             CV                S
                      KCal/Mol        Cal/Mol-Kelvin    Cal/Mol-Kelvin
 Total                   99.897             34.852             99.816
 Electronic               0.000              0.000              0.000
 Translational            0.889              2.981             40.525
 Rotational               0.889              2.981             29.317
 Vibrational             98.119             28.891             29.974
 Vibration     1          0.595              1.980              5.057
 Vibration     2          0.596              1.977              4.712
 Vibration     3          0.600              1.961              3.837
 Vibration     4          0.607              1.939              3.226
 Vibration     5          0.623              1.887              2.502
 Vibration     6          0.640              1.831              2.079
 Vibration     7          0.669              1.742              1.649
 Vibration     8          0.715              1.610              1.246
 Vibration     9          0.722              1.590              1.200
 Vibration    10          0.826              1.319              0.741
 Vibration    11          0.875              1.205              0.610
 Vibration    12          0.923              1.102              0.509

 Optimization completed.
    -- Stationary point found.
 Normal termination of Gaussian 16 at Mon May 31 16:29:18 2021.
