 Gaussian 16, Revision A.03,
 Gaussian 16:  ES64L-G16RevA.03 25-Dec-2016

 -----------------------------
 # opt freq b3lyp/6-31g(2df,p)
 -----------------------------

 -------------------
 Title Card Required
 -------------------
 Symbolic Z-matrix:
 Charge =  0 Multiplicity = 1

 SCF Done:  E(RB3LYP) =  -556.996534597     A.U. after   15 cycles
 SCF Done:  E(RB3LYP) =  -557.006857628     A.U. after   14 cycles
 SCF Done:  E(RB3LYP) =  -557.008577058     A.U. after   13 cycles
 SCF Done:  E(RB3LYP) =  -557.009093320     A.U. after   13 cycles
 SCF Done:  E(RB3LYP) =  -557.008729905     A.U. after   14 cycles
 SCF Done:  E(RB3LYP) =  -557.009258703     A.U. after   12 cycles
 SCF Done:  E(RB3LYP) =  -557.009441418     A.U. after   13 cycles
 SCF Done:  E(RB3LYP) =  -557.009692511     A.U. after   14 cycles
 SCF Done:  E(RB3LYP) =  -557.010145083     A.U. after   14 cycles
 SCF Done:  E(RB3LYP) =  -557.010677135     A.U. after   14 cycles
 SCF Done:  E(RB3LYP) =  -557.013630189     A.U. after   12 cycles
 SCF Done:  E(RB3LYP) =  -557.013639070     A.U. after   12 cycles
 SCF Done:  E(RB3LYP) =  -557.013643026     A.U. after   11 cycles
 SCF Done:  E(RB3LYP) =  -557.013644254     A.U. after   10 cycles
 SCF Done:  E(RB3LYP) =  -557.013644772     A.U. after    9 cycles
 SCF Done:  E(RB3LYP) =  -557.013644834     A.U. after    8 cycles
 SCF Done:  E(RB3LYP) =  -557.013644898     A.U. after    8 cycles
 SCF Done:  E(RB3LYP) =  -557.013644937     A.U. after    8 cycles
 SCF Done:  E(RB3LYP) =  -557.013644945     A.U. after    8 cycles
 Optimization completed.
    -- Stationary point found.
 Normal termination of Gaussian 16 at Tue Jun  1 04:42:30 2021.

 ----------------------------------------------------------------------
 #N Geom=AllCheck Guess=TCheck SCRF=Check GenChk RB3LYP/6-31G(2df,p) Fr
 eq
 ----------------------------------------------------------------------

 Structure from the checkpoint file:  "NtCNpCNdNNpNdNCN.chk"
 -------------------
 Title Card Required
 -------------------
 Charge =  0 Multiplicity = 1

                         Standard orientation:
 ---------------------------------------------------------------------
 Center     Atomic      Atomic             Coordinates (Angstroms)
 Number     Number       Type             X           Y           Z
 ---------------------------------------------------------------------
      1          7           0       -1.353666    2.680473   -0.145330
      2          6           0       -0.723092    1.709421   -0.073612
      3          7           0        0.003697    0.588652    0.018421
      4          6           0       -0.615429   -0.752059    0.066323
      5          7           0       -1.959640   -0.658806   -0.463145
      6          7           0       -2.807930   -1.012799    0.389894
      7          7           0       -4.064875   -0.893445   -0.032221
      8          7           0        1.362050    0.765259    0.119500
      9          7           0        1.975073   -0.301602    0.290259
     10          6           0        3.424912   -0.087386    0.381084
     11          7           0        4.070845   -0.958441   -0.588935
     12          1           0       -0.587971   -1.137856    1.092253
     13          1           0       -0.004334   -1.394629   -0.574183
     14          1           0       -4.731885   -1.429986    0.496080
     15          1           0       -4.216431   -0.742605   -1.024928
     16          1           0        3.692591   -0.291265    1.431919
     17          1           0        3.676601    0.954741    0.155301
     18          1           0        4.020000   -1.924393   -0.280290
     19          1           0        5.054205   -0.718899   -0.658021
 ---------------------------------------------------------------------

 SCF Done:  E(RB3LYP) =  -557.013644945     A.U. after    1 cycles

 The electronic state is 1-A.
 Alpha  occ. eigenvalues --  -14.43023 -14.42874 -14.42451 -14.38959 -14.37333
 Alpha  occ. eigenvalues --  -14.36659 -14.32210 -14.31759 -10.26205 -10.24444
 Alpha  occ. eigenvalues --  -10.24033  -1.09701  -1.08353  -0.96972  -0.91515
 Alpha  occ. eigenvalues --   -0.89486  -0.87570  -0.76771  -0.72593  -0.65076
 Alpha  occ. eigenvalues --   -0.62655  -0.57767  -0.54311  -0.53042  -0.52362
 Alpha  occ. eigenvalues --   -0.49354  -0.47291  -0.45640  -0.44380  -0.43686
 Alpha  occ. eigenvalues --   -0.41659  -0.38348  -0.38062  -0.35360  -0.35334
 Alpha  occ. eigenvalues --   -0.32950  -0.28079  -0.26203  -0.25823  -0.24903
 Alpha  occ. eigenvalues --   -0.24868
 Alpha virt. eigenvalues --   -0.04164  -0.03266   0.03134   0.07053   0.08122
 Alpha virt. eigenvalues --    0.09435   0.12156   0.12833   0.13031   0.13556
 Alpha virt. eigenvalues --    0.13831   0.16278   0.17624   0.17848   0.19739

 Mulliken charges:
               1
     1  N   -0.349106
     2  C    0.409104
     3  N   -0.107248
     4  C   -0.082900
     5  N   -0.184070
     6  N   -0.036346
     7  N   -0.355556
     8  N   -0.092681
     9  N   -0.134047
    10  C   -0.084663
    11  N   -0.495841
    12  H    0.131585
    13  H    0.150457
    14  H    0.277579
    15  H    0.258957
    16  H    0.101162
    17  H    0.122474
    18  H    0.234523
    19  H    0.236617
 Sum of Mulliken charges =  -0.00000

 Dipole moment (field-independent basis, Debye):
    X=              0.4712    Y=             -4.9967    Z=              1.0064  Tot=              5.1187
 Quadrupole moment (field-independent basis, Debye-Ang):
   XX=            -34.0638   YY=            -71.3878   ZZ=            -64.5652
   XY=              9.4662   XZ=              4.3768   YZ=              0.0663

  Exact polarizability: 152.290 -11.339  84.821   1.586  -3.862  58.905
 Approx polarizability: 201.937 -29.766 137.119  -1.612  -9.652  94.195

                      1                      2                      3
                      A                      A                      A
 Frequencies --     28.0049                46.5287                54.9127
 Red. masses --      3.2705                 4.0330                 5.3152
 Frc consts  --      0.0015                 0.0051                 0.0094
 IR Inten    --      1.2642                 0.4033                 3.6771

                      4                      5                      6
                      A                      A                      A
 Frequencies --     98.0805               114.7777               161.6169
 Red. masses --      5.0397                 3.4352                 2.4091
 Frc consts  --      0.0286                 0.0267                 0.0371
 IR Inten    --      0.4541                 3.0271                 4.0359

                      7                      8                      9
                      A                      A                      A
 Frequencies --    169.1339               185.3487               241.9376
 Red. masses --      1.7092                 3.8452                 4.3305
 Frc consts  --      0.0288                 0.0778                 0.1493
 IR Inten    --     60.3053                 6.8761                 6.0172

                     10                     11                     12
                      A                      A                      A
 Frequencies --    338.2166               352.9900               376.4816
 Red. masses --      5.2971                 2.1441                 3.0354
 Frc consts  --      0.3570                 0.1574                 0.2535
 IR Inten    --     63.8082                60.3346               117.5209

                     13                     14                     15
                      A                      A                      A
 Frequencies --    382.4788               407.1127               470.8474
 Red. masses --      2.1936                 3.6455                 6.7945
 Frc consts  --      0.1891                 0.3560                 0.8875
 IR Inten    --     52.7944                45.5179                 2.8397

                     16                     17                     18
                      A                      A                      A
 Frequencies --    522.9616               596.0992               622.0680
 Red. masses --     11.9257                 4.1950                 2.1690
 Frc consts  --      1.9216                 0.8783                 0.4945
 IR Inten    --      7.5938                11.1983                 9.1024

                     19                     20                     21
                      A                      A                      A
 Frequencies --    653.4861               707.3199               824.7434
 Red. masses --      2.4991                 4.0632                 3.7255
 Frc consts  --      0.6288                 1.1977                 1.4930
 IR Inten    --      9.7775                 2.5484                28.6441

                     22                     23                     24
                      A                      A                      A
 Frequencies --    840.6326              1007.0775              1023.2303
 Red. masses --      1.4009                 2.1447                 2.4575
 Frc consts  --      0.5833                 1.2816                 1.5159
 IR Inten    --    137.2696                 1.0234                 9.9697

                     25                     26                     27
                      A                      A                      A
 Frequencies --   1035.2322              1099.4297              1111.4093
 Red. masses --      1.9984                 3.2256                 2.3718
 Frc consts  --      1.2619                 2.2972                 1.7261
 IR Inten    --     22.2212               124.7748                13.1405

                     28                     29                     30
                      A                      A                      A
 Frequencies --   1149.9133              1216.6359              1236.4711
 Red. masses --      4.6022                 2.0164                 1.5416
 Frc consts  --      3.5854                 1.7585                 1.3887
 IR Inten    --    280.7821                19.6247                20.8845

                     31                     32                     33
                      A                      A                      A
 Frequencies --   1243.8936              1293.0864              1316.8485
 Red. masses --      1.4086                 2.0232                 2.4161
 Frc consts  --      1.2841                 1.9931                 2.4685
 IR Inten    --     88.0997                51.5311                28.9192

                     34                     35                     36
                      A                      A                      A
 Frequencies --   1328.0742              1402.4943              1425.3876
 Red. masses --      1.4159                 1.7553                 1.3761
 Frc consts  --      1.4714                 2.0343                 1.6473
 IR Inten    --     19.8527                45.4713                43.1258

                     37                     38                     39
                      A                      A                      A
 Frequencies --   1500.8854              1502.6674              1594.1929
 Red. masses --      1.1005                 1.1041                 4.7585
 Frc consts  --      1.4606                 1.4689                 7.1252
 IR Inten    --      3.7148                 0.1851               230.5772

                     40                     41                     42
                      A                      A                      A
 Frequencies --   1610.0181              1625.0210              1649.3438
 Red. masses --     10.3580                 1.2626                 1.0946
 Frc consts  --     15.8193                 1.9644                 1.7545
 IR Inten    --    126.2112                13.8717                22.5627

                     43                     44                     45
                      A                      A                      A
 Frequencies --   2352.4753              2951.6299              3032.4498
 Red. masses --     12.6053                 1.0682                 1.0586
 Frc consts  --     41.1010                 5.4831                 5.7356
 IR Inten    --    141.9829                66.0027                17.7336

                     46                     47                     48
                      A                      A                      A
 Frequencies --   3064.6646              3094.0431              3495.2982
 Red. masses --      1.0931                 1.1042                 1.0477
 Frc consts  --      6.0489                 6.2278                 7.5418
 IR Inten    --     24.9067                 6.4158                21.5405

                     49                     50                     51
                      A                      A                      A
 Frequencies --   3503.7465              3588.4567              3706.2147
 Red. masses --      1.0494                 1.0925                 1.0982
 Frc consts  --      7.5901                 8.2887                 8.8880
 IR Inten    --      0.6421                 2.0865                66.5096

 - Thermochemistry -
 -------------------
 Temperature   298.150 Kelvin.  Pressure   1.00000 Atm.
 Atom     1 has atomic number  7 and mass  14.00307

 Molecular mass:   156.08719 amu.
 Principal axes and moments of inertia in atomic units:
                           1         2         3
     Eigenvalues --   825.634863622.394544312.46219
           X            0.99999   0.00169   0.00282
           Y           -0.00170   1.00000   0.00169
           Z           -0.00282  -0.00170   0.99999
 This molecule is an asymmetric top.
 Rotational symmetry number  1.
 Warning -- assumption of classical behavior for rotation
           may cause significant error
 Rotational temperatures (Kelvin)      0.10491     0.02391     0.02008
 Rotational constants (GHZ):           2.18588     0.49822     0.41849
 Zero-point vibrational energy     378953.5 (Joules/Mol)
                                   90.57205 (Kcal/Mol)
 Warning -- explicit consideration of  17 degrees of freedom as
           vibrations may cause significant error
 Vibrational temperatures:     40.29    66.94    79.01   141.12   165.14
          (Kelvin)            232.53   243.35   266.68   348.09   486.62
                              507.87   541.67   550.30   585.74   677.44
                              752.43   857.65   895.02   940.22  1017.68
                             1186.62  1209.48  1448.96  1472.20  1489.47
                             1581.83  1599.07  1654.47  1750.47  1779.01
                             1789.69  1860.46  1894.65  1910.80  2017.88
                             2050.81  2159.44  2162.00  2293.69  2316.46
                             2338.04  2373.04  3384.69  4246.74  4363.02
                             4409.37  4451.64  5028.95  5041.11  5162.99
                             5332.42

 Zero-point correction=                           0.144336 (Hartree/Particle)
 Thermal correction to Energy=                    0.156602
 Thermal correction to Enthalpy=                  0.157546
 Thermal correction to Gibbs Free Energy=         0.104053
 Sum of electronic and zero-point Energies=           -556.869309
 Sum of electronic and thermal Energies=              -556.857043
 Sum of electronic and thermal Enthalpies=            -556.856099
 Sum of electronic and thermal Free Energies=         -556.909592

                     E (Thermal)             CV                S
                      KCal/Mol        Cal/Mol-Kelvin    Cal/Mol-Kelvin
 Total                   98.269             41.702            112.586
 Electronic               0.000              0.000              0.000
 Translational            0.889              2.981             41.045
 Rotational               0.889              2.981             30.934
 Vibrational             96.492             35.740             40.607
 Vibration     1          0.593              1.984              5.966
 Vibration     2          0.595              1.979              4.960
 Vibration     3          0.596              1.976              4.632
 Vibration     4          0.604              1.951              3.492
 Vibration     5          0.608              1.937              3.186
 Vibration     6          0.622              1.889              2.531
 Vibration     7          0.625              1.880              2.445
 Vibration     8          0.631              1.860              2.274
 Vibration     9          0.658              1.776              1.789
 Vibration    10          0.719              1.599              1.221
 Vibration    11          0.729              1.569              1.153
 Vibration    12          0.747              1.520              1.053
 Vibration    13          0.752              1.508              1.029
 Vibration    14          0.772              1.455              0.937
 Vibration    15          0.828              1.315              0.735
 Vibration    16          0.878              1.199              0.603
 Vibration    17          0.954              1.040              0.456

 Optimization completed.
    -- Stationary point found.
 Normal termination of Gaussian 16 at Tue Jun  1 05:13:40 2021.
