 Gaussian 16, Revision A.03,
 Gaussian 16:  ES64L-G16RevA.03 25-Dec-2016

 -----------------------------
 # opt freq b3lyp/6-31g(2df,p)
 -----------------------------

 -------------------
 Title Card Required
 -------------------
 Symbolic Z-matrix:
 Charge =  0 Multiplicity = 1

 SCF Done:  E(RB3LYP) =  -498.395472811     A.U. after   13 cycles
 SCF Done:  E(RB3LYP) =  -498.400349457     A.U. after   13 cycles
 SCF Done:  E(RB3LYP) =  -498.397738933     A.U. after   13 cycles
 SCF Done:  E(RB3LYP) =  -498.401477056     A.U. after   13 cycles
 SCF Done:  E(RB3LYP) =  -498.402960399     A.U. after   13 cycles
 SCF Done:  E(RB3LYP) =  -498.404788458     A.U. after   14 cycles
 SCF Done:  E(RB3LYP) =  -498.408176823     A.U. after   13 cycles
 SCF Done:  E(RB3LYP) =  -498.408490376     A.U. after   13 cycles
 SCF Done:  E(RB3LYP) =  -498.413025544     A.U. after   13 cycles
 SCF Done:  E(RB3LYP) =  -498.414886756     A.U. after   13 cycles
 SCF Done:  E(RB3LYP) =  -498.419856327     A.U. after   13 cycles
 SCF Done:  E(RB3LYP) =  -498.419944392     A.U. after   12 cycles
 SCF Done:  E(RB3LYP) =  -498.420209026     A.U. after   13 cycles
 SCF Done:  E(RB3LYP) =  -498.420412794     A.U. after   13 cycles
 SCF Done:  E(RB3LYP) =  -498.420451599     A.U. after   11 cycles
 SCF Done:  E(RB3LYP) =  -498.420435731     A.U. after   13 cycles
 SCF Done:  E(RB3LYP) =  -498.420480297     A.U. after   12 cycles
 SCF Done:  E(RB3LYP) =  -498.420480285     A.U. after    8 cycles
 SCF Done:  E(RB3LYP) =  -498.420480992     A.U. after    9 cycles
 Optimization completed.
    -- Stationary point found.
 Normal termination of Gaussian 16 at Tue Jun  1 05:26:51 2021.

 ----------------------------------------------------------------------
 #N Geom=AllCheck Guess=TCheck SCRF=Check GenChk RB3LYP/6-31G(2df,p) Fr
 eq
 ----------------------------------------------------------------------

 Structure from the checkpoint file:  "OdCCCdCCCpOpCdO.chk"
 -------------------
 Title Card Required
 -------------------
 Charge =  0 Multiplicity = 1

                         Standard orientation:
 ---------------------------------------------------------------------
 Center     Atomic      Atomic             Coordinates (Angstroms)
 Number     Number       Type             X           Y           Z
 ---------------------------------------------------------------------
      1          8           0        4.267506    1.181627    0.497643
      2          6           0        3.677299    0.136235    0.560788
      3          6           0        2.880772   -0.479161   -0.578834
      4          6           0        1.516503   -0.930647   -0.132239
      5          6           0        0.369066   -0.474572   -0.629166
      6          6           0       -0.993791   -0.916423   -0.181998
      7          6           0       -1.865791    0.284343    0.260937
      8          8           0       -2.035202    1.198635   -0.786159
      9          6           0       -3.210797   -0.201226    0.761007
     10          8           0       -4.245633    0.170227    0.262504
     11          1           0        3.683699   -0.472444    1.495521
     12          1           0        3.462424   -1.348477   -0.926568
     13          1           0        2.828561    0.241837   -1.398319
     14          1           0        1.496454   -1.680680    0.658900
     15          1           0        0.378503    0.275881   -1.416645
     16          1           0       -0.912072   -1.637711    0.640119
     17          1           0       -1.519265   -1.411577   -1.009881
     18          1           0       -1.363575    0.769363    1.117426
     19          1           0       -2.993690    1.268943   -0.920882
     20          1           0       -3.193959   -0.920344    1.605450
 ---------------------------------------------------------------------

 SCF Done:  E(RB3LYP) =  -498.420480992     A.U. after    1 cycles

 The electronic state is 1-A.
 Alpha  occ. eigenvalues --  -19.16879 -19.14418 -19.14317 -10.29092 -10.27671
 Alpha  occ. eigenvalues --  -10.25478 -10.20809 -10.20383 -10.20090 -10.19673
 Alpha  occ. eigenvalues --   -1.07984  -1.05054  -1.02747  -0.82666  -0.78641
 Alpha  occ. eigenvalues --   -0.72774  -0.65964  -0.59283  -0.58123  -0.56772
 Alpha  occ. eigenvalues --   -0.53042  -0.50524  -0.48079  -0.47372  -0.45185
 Alpha  occ. eigenvalues --   -0.44799  -0.43476  -0.42984  -0.40016  -0.39110
 Alpha  occ. eigenvalues --   -0.38377  -0.36963  -0.36529  -0.34897  -0.28998
 Alpha  occ. eigenvalues --   -0.28116  -0.27334  -0.24376
 Alpha virt. eigenvalues --   -0.04461  -0.02624   0.01254   0.08902   0.10382
 Alpha virt. eigenvalues --    0.10686   0.11716   0.12470   0.13538   0.13740
 Alpha virt. eigenvalues --    0.15007   0.16946   0.17514   0.19802   0.21295

 Mulliken charges:
               1
     1  O   -0.231590
     2  C    0.170210
     3  C   -0.320323
     4  C   -0.069186
     5  C   -0.028101
     6  C   -0.274432
     7  C    0.058235
     8  O   -0.432116
     9  C    0.135359
    10  O   -0.256506
    11  H    0.071314
    12  H    0.128917
    13  H    0.129382
    14  H    0.085999
    15  H    0.115460
    16  H    0.099330
    17  H    0.121413
    18  H    0.100414
    19  H    0.296397
    20  H    0.099824
 Sum of Mulliken charges =  -0.00000

 Dipole moment (field-independent basis, Debye):
    X=             -0.5319    Y=             -3.3258    Z=              0.9485  Tot=              3.4991
 Quadrupole moment (field-independent basis, Debye-Ang):
   XX=            -75.2114   YY=            -60.6972   ZZ=            -55.9746
   XY=             -7.0686   XZ=             -3.5195   YZ=             -1.4904

  Exact polarizability: 120.473  -0.406  71.014   4.731  -8.310  70.530
 Approx polarizability: 155.162  -2.299 113.342  13.787 -15.576 107.605

                      1                      2                      3
                      A                      A                      A
 Frequencies --     31.6128                45.7044                65.4871
 Red. masses --      7.1364                 6.9374                 3.5174
 Frc consts  --      0.0042                 0.0085                 0.0089
 IR Inten    --      1.7335                 2.5075                 1.4540

                      4                      5                      6
                      A                      A                      A
 Frequencies --     87.2565               125.1623               147.9116
 Red. masses --      4.3508                 3.7007                 2.2909
 Frc consts  --      0.0195                 0.0342                 0.0295
 IR Inten    --      1.0948                 2.2290                 5.1150

                      7                      8                      9
                      A                      A                      A
 Frequencies --    213.5686               286.8760               292.9353
 Red. masses --      2.0925                 2.9888                 4.8100
 Frc consts  --      0.0562                 0.1449                 0.2432
 IR Inten    --      0.1135                 6.9861                 2.2857

                     10                     11                     12
                      A                      A                      A
 Frequencies --    332.3994               382.4073               419.8206
 Red. masses --      5.2753                 2.6448                 1.4097
 Frc consts  --      0.3434                 0.2279                 0.1464
 IR Inten    --     13.9481                11.9850                63.2518

                     13                     14                     15
                      A                      A                      A
 Frequencies --    463.2048               498.9344               557.3907
 Red. masses --      2.6537                 1.7205                 2.8657
 Frc consts  --      0.3355                 0.2523                 0.5246
 IR Inten    --      9.7213                 8.9481                 6.6953

                     16                     17                     18
                      A                      A                      A
 Frequencies --    735.5404               769.8575               815.0615
 Red. masses --      2.8633                 1.6967                 2.1046
 Frc consts  --      0.9127                 0.5925                 0.8238
 IR Inten    --      6.3841                 1.7509                22.6352

                     19                     20                     21
                      A                      A                      A
 Frequencies --    855.0594               883.6650               949.4685
 Red. masses --      2.3691                 1.6801                 2.8236
 Frc consts  --      1.0205                 0.7730                 1.4997
 IR Inten    --     14.7805                 1.0213                21.6210

                     22                     23                     24
                      A                      A                      A
 Frequencies --    995.9237              1026.8226              1045.7217
 Red. masses --      2.0300                 1.1707                 2.0968
 Frc consts  --      1.1863                 0.7272                 1.3509
 IR Inten    --     24.5887                40.7360                 4.7243

                     25                     26                     27
                      A                      A                      A
 Frequencies --   1057.6630              1087.7564              1117.0083
 Red. masses --      2.0222                 3.1514                 3.1849
 Frc consts  --      1.3328                 2.1969                 2.3413
 IR Inten    --     20.7589                 2.7020                56.4262

                     28                     29                     30
                      A                      A                      A
 Frequencies --   1164.7190              1196.2827              1236.3723
 Red. masses --      2.4522                 1.3505                 1.2929
 Frc consts  --      1.9600                 1.1387                 1.1644
 IR Inten    --     20.9672                17.3799                 1.5669

                     31                     32                     33
                      A                      A                      A
 Frequencies --   1249.0800              1273.0574              1307.6675
 Red. masses --      1.2848                 1.3443                 1.3525
 Frc consts  --      1.1811                 1.2836                 1.3626
 IR Inten    --      7.2944                 9.4093                27.0971

                     34                     35                     36
                      A                      A                      A
 Frequencies --   1331.3489              1351.8280              1364.6653
 Red. masses --      1.2689                 1.2781                 1.3394
 Frc consts  --      1.3251                 1.3761                 1.4696
 IR Inten    --      6.8483                 0.7353                 6.0436

                     37                     38                     39
                      A                      A                      A
 Frequencies --   1403.5796              1429.3499              1437.3730
 Red. masses --      1.2283                 1.1794                 1.3858
 Frc consts  --      1.4257                 1.4196                 1.6868
 IR Inten    --     27.3860                 8.3503                67.3197

                     40                     41                     42
                      A                      A                      A
 Frequencies --   1451.5874              1464.7199              1738.3335
 Red. masses --      1.1011                 1.1032                 6.2880
 Frc consts  --      1.3670                 1.3944                11.1952
 IR Inten    --      6.0459                 2.4601                 1.7126

                     43                     44                     45
                      A                      A                      A
 Frequencies --   1813.1463              1839.7515              2854.6981
 Red. masses --     10.2017                10.1776                 1.0821
 Frc consts  --     19.7601                20.2962                 5.1954
 IR Inten    --    173.2512               192.3840               115.7435

                     46                     47                     48
                      A                      A                      A
 Frequencies --   2926.2324              2952.8996              2986.1635
 Red. masses --      1.0847                 1.0816                 1.0681
 Frc consts  --      5.4722                 5.5566                 5.6118
 IR Inten    --     53.8561                43.8116                17.1923

                     49                     50                     51
                      A                      A                      A
 Frequencies --   3013.2332              3065.0449              3105.2515
 Red. masses --      1.0600                 1.1010                 1.0911
 Frc consts  --      5.6706                 6.0944                 6.1988
 IR Inten    --     21.3138                21.4965                 2.0339

                     52                     53                     54
                      A                      A                      A
 Frequencies --   3125.6722              3161.7447              3688.8841
 Red. masses --      1.0892                 1.0883                 1.0648
 Frc consts  --      6.2695                 6.4101                 8.5369
 IR Inten    --     20.6900                 9.5980                84.5170

 - Thermochemistry -
 -------------------
 Temperature   298.150 Kelvin.  Pressure   1.00000 Atm.
 Atom     1 has atomic number  8 and mass  15.99491

 Molecular mass:   142.06299 amu.
 Principal axes and moments of inertia in atomic units:
                           1         2         3
     Eigenvalues --   484.086954371.873644503.41391
           X            0.99998  -0.00614  -0.00323
           Y            0.00590   0.99737  -0.07225
           Z            0.00366   0.07223   0.99738
 This molecule is an asymmetric top.
 Rotational symmetry number  1.
 Warning -- assumption of classical behavior for rotation
           may cause significant error
 Rotational temperatures (Kelvin)      0.17892     0.01981     0.01923
 Rotational constants (GHZ):           3.72813     0.41281     0.40075
 Zero-point vibrational energy     420026.3 (Joules/Mol)
                                  100.38868 (Kcal/Mol)
 Warning -- explicit consideration of  15 degrees of freedom as
           vibrations may cause significant error
 Vibrational temperatures:     45.48    65.76    94.22   125.54   180.08
          (Kelvin)            212.81   307.28   412.75   421.47   478.25
                              550.20   604.03   666.45   717.86   801.96
                             1058.28  1107.65  1172.69  1230.24  1271.40
                             1366.07  1432.91  1477.37  1504.56  1521.74
                             1565.04  1607.13  1675.77  1721.18  1778.86
                             1797.15  1831.65  1881.44  1915.51  1944.98
                             1963.45  2019.44  2056.52  2068.06  2088.51
                             2107.41  2501.07  2608.71  2646.99  4107.27
                             4210.20  4248.56  4296.42  4335.37  4409.92
                             4467.76  4497.15  4549.05  5307.48

 Zero-point correction=                           0.159980 (Hartree/Particle)
 Thermal correction to Energy=                    0.171253
 Thermal correction to Enthalpy=                  0.172197
 Thermal correction to Gibbs Free Energy=         0.120943
 Sum of electronic and zero-point Energies=           -498.260501
 Sum of electronic and thermal Energies=              -498.249228
 Sum of electronic and thermal Enthalpies=            -498.248284
 Sum of electronic and thermal Free Energies=         -498.299538

                     E (Thermal)             CV                S
                      KCal/Mol        Cal/Mol-Kelvin    Cal/Mol-Kelvin
 Total                  107.463             38.716            107.872
 Electronic               0.000              0.000              0.000
 Translational            0.889              2.981             40.765
 Rotational               0.889              2.981             30.634
 Vibrational            105.685             32.754             36.474
 Vibration     1          0.594              1.983              5.726
 Vibration     2          0.595              1.979              4.995
 Vibration     3          0.597              1.971              4.285
 Vibration     4          0.601              1.958              3.721
 Vibration     5          0.610              1.928              3.019
 Vibration     6          0.617              1.905              2.699
 Vibration     7          0.644              1.820              2.013
 Vibration     8          0.684              1.698              1.492
 Vibration     9          0.688              1.687              1.457
 Vibration    10          0.714              1.611              1.248
 Vibration    11          0.752              1.508              1.030
 Vibration    12          0.782              1.427              0.893
 Vibration    13          0.821              1.332              0.757
 Vibration    14          0.854              1.252              0.661
 Vibration    15          0.913              1.124              0.529

 Optimization completed.
    -- Stationary point found.
 Normal termination of Gaussian 16 at Tue Jun  1 05:58:45 2021.
